 vasp.5.3.5 31Mar14 (build Nov 29 2014 00:29:25) complex                        
  
 executed on             LinuxIFC date 2016.02.04  19:21:31
 running on   20 total cores
 distrk:  each k-point on   20 cores,    1 groups
 distr:  one band on NCORES_PER_BAND=   1 cores,   20 groups


--------------------------------------------------------------------------------------------------------


 INCAR:
 POTCAR:    PAW_PBE Cu 22Jun2005                  
 POTCAR:    PAW_PBE C 08Apr2002                   
 POTCAR:    PAW_PBE O 08Apr2002                   

 ----------------------------------------------------------------------------- 
|                                                                             |
|           W    W    AA    RRRRR   N    N  II  N    N   GGGG   !!!           |
|           W    W   A  A   R    R  NN   N  II  NN   N  G    G  !!!           |
|           W    W  A    A  R    R  N N  N  II  N N  N  G       !!!           |
|           W WW W  AAAAAA  RRRRR   N  N N  II  N  N N  G  GGG   !            |
|           WW  WW  A    A  R   R   N   NN  II  N   NN  G    G                |
|           W    W  A    A  R    R  N    N  II  N    N   GGGG   !!!           |
|                                                                             |
|      For optimal performance we recommend to set                            |
|        NCORE= 4 - approx SQRT( number of cores)                             |
|      NCORE specifies how many cores store one orbital (NPAR=cpu/NCORE).     |
|      This setting can  greatly improve the performance of VASP for DFT.     |
|      The default, NPAR=number of cores might be grossly inefficient         |
|      on modern multi-core architectures or massively parallel machines.     |
|      Do your own testing !!!!                                               |
|      Unfortunately you need to use the default for GW and RPA calculations. |
|      (for HF NCORE is supported but not extensively tested yet)             |
|                                                                             |
 ----------------------------------------------------------------------------- 

 POTCAR:    PAW_PBE Cu 22Jun2005                  
   VRHFIN =Cu: d10 p1                                                           
   LEXCH  = PE                                                                  
   EATOM  =  1390.9808 eV,  102.2342 Ry                                         
                                                                                
   TITEL  = PAW_PBE Cu 22Jun2005                                                
   LULTRA =        F    use ultrasoft PP ?                                      
   IUNSCR =        1    unscreen: 0-lin 1-nonlin 2-no                           
   RPACOR =    2.000    partial core radius                                     
   POMASS =   63.546; ZVAL   =   11.000    mass and valenz                      
   RCORE  =    2.300    outmost cutoff radius                                   
   RWIGS  =    2.200; RWIGS  =    1.164    wigner-seitz radius (au A)           
   ENMAX  =  295.446; ENMIN  =  221.585 eV                                      
   ICORE  =        3    local potential                                         
   LCOR   =        T    correct aug charges                                     
   LPAW   =        T    paw PP                                                  
   EAUG   =  586.980                                                            
   DEXC   =    0.000                                                            
   RMAX   =    2.344    core radius for proj-oper                               
   RAUG   =    1.300    factor for augmentation sphere                          
   RDEP   =    2.302    radius for radial grids                                 
   RDEPT  =    1.771    core radius for aug-charge                              
                                                                                
   Atomic configuration                                                         
    9 entries                                                                   
     n  l   j            E        occ.                                          
     1  0  0.50     -8850.2468   2.0000                                         
     2  0  0.50     -1062.3498   2.0000                                         
     2  1  1.50      -916.8226   6.0000                                         
     3  0  0.50      -114.6929   2.0000                                         
     3  1  1.50       -72.1325   6.0000                                         
     3  2  2.50        -5.0394  10.0000                                         
     4  0  0.50        -4.6097   1.0000                                         
     4  1  0.50        -4.0817   0.0000                                         
     4  3  2.50        -1.3606   0.0000                                         
   Description                                                                  
     l       E           TYP  RCUT    TYP  RCUT                                 
     2     -5.0393973     23  2.200                                             
     2     10.8846608     23  2.200                                             
     0     -4.6097109     23  2.200                                             
     0      8.2520465     23  2.200                                             
     1     -2.7211652     23  2.200                                             
     1     21.7055443     23  2.200                                             
     3      2.7211652     23  2.300                                             
  local pseudopotential read in
  partial core-charges read in
  partial kinetic energy density read in
  atomic valenz-charges read in
  non local Contribution for L=           2  read in
    real space projection operators read in
  non local Contribution for L=           2  read in
    real space projection operators read in
  non local Contribution for L=           0  read in
    real space projection operators read in
  non local Contribution for L=           0  read in
    real space projection operators read in
  non local Contribution for L=           1  read in
    real space projection operators read in
  non local Contribution for L=           1  read in
    real space projection operators read in
    PAW grid and wavefunctions read in
 
   number of l-projection  operators is LMAX  =           6
   number of lm-projection operators is LMMAX =          18
 
 POTCAR:    PAW_PBE C 08Apr2002                   
   VRHFIN =C: s2p2                                                              
   LEXCH  = PE                                                                  
   EATOM  =   147.1560 eV,   10.8157 Ry                                         
                                                                                
   TITEL  = PAW_PBE C 08Apr2002                                                 
   LULTRA =        F    use ultrasoft PP ?                                      
   IUNSCR =        1    unscreen: 0-lin 1-nonlin 2-no                           
   RPACOR =    1.200    partial core radius                                     
   POMASS =   12.011; ZVAL   =    4.000    mass and valenz                      
   RCORE  =    1.500    outmost cutoff radius                                   
   RWIGS  =    1.630; RWIGS  =    0.863    wigner-seitz radius (au A)           
   ENMAX  =  400.000; ENMIN  =  300.000 eV                                      
   ICORE  =        2    local potential                                         
   LCOR   =        T    correct aug charges                                     
   LPAW   =        T    paw PP                                                  
   EAUG   =  644.873                                                            
   DEXC   =    0.000                                                            
   RMAX   =    1.529    core radius for proj-oper                               
   RAUG   =    1.300    factor for augmentation sphere                          
   RDEP   =    1.501    radius for radial grids                                 
   RDEPT  =    1.300    core radius for aug-charge                              
                                                                                
   Atomic configuration                                                         
    4 entries                                                                   
     n  l   j            E        occ.                                          
     1  0  0.50      -273.3789   2.0000                                         
     2  0  0.50       -13.7508   2.0000                                         
     2  1  0.50        -5.2854   2.0000                                         
     3  2  1.50        -5.4423   0.0000                                         
   Description                                                                  
     l       E           TYP  RCUT    TYP  RCUT                                 
     0    -13.7508458     23  1.200                                             
     0     -8.2022199     23  1.200                                             
     1     -5.2854383     23  1.500                                             
     1     34.0145650     23  1.500                                             
     2     -5.4423304      7  1.500                                             
  local pseudopotential read in
  partial core-charges read in
  partial kinetic energy density read in
  atomic valenz-charges read in
  non local Contribution for L=           0  read in
    real space projection operators read in
  non local Contribution for L=           0  read in
    real space projection operators read in
  non local Contribution for L=           1  read in
    real space projection operators read in
  non local Contribution for L=           1  read in
    real space projection operators read in
    PAW grid and wavefunctions read in
 
   number of l-projection  operators is LMAX  =           4
   number of lm-projection operators is LMMAX =           8
 
 POTCAR:    PAW_PBE O 08Apr2002                   
   VRHFIN =O: s2p4                                                              
   LEXCH  = PE                                                                  
   EATOM  =   432.3788 eV,   31.7789 Ry                                         
                                                                                
   TITEL  = PAW_PBE O 08Apr2002                                                 
   LULTRA =        F    use ultrasoft PP ?                                      
   IUNSCR =        1    unscreen: 0-lin 1-nonlin 2-no                           
   RPACOR =    1.200    partial core radius                                     
   POMASS =   16.000; ZVAL   =    6.000    mass and valenz                      
   RCORE  =    1.520    outmost cutoff radius                                   
   RWIGS  =    1.550; RWIGS  =    0.820    wigner-seitz radius (au A)           
   ENMAX  =  400.000; ENMIN  =  300.000 eV                                      
   ICORE  =        2    local potential                                         
   LCOR   =        T    correct aug charges                                     
   LPAW   =        T    paw PP                                                  
   EAUG   =  605.392                                                            
   DEXC   =    0.000                                                            
   RMAX   =    1.553    core radius for proj-oper                               
   RAUG   =    1.300    factor for augmentation sphere                          
   RDEP   =    1.550    radius for radial grids                                 
   RDEPT  =    1.329    core radius for aug-charge                              
                                                                                
   Atomic configuration                                                         
    4 entries                                                                   
     n  l   j            E        occ.                                          
     1  0  0.50      -514.6923   2.0000                                         
     2  0  0.50       -23.9615   2.0000                                         
     2  1  0.50        -9.0305   4.0000                                         
     3  2  1.50        -9.5241   0.0000                                         
   Description                                                                  
     l       E           TYP  RCUT    TYP  RCUT                                 
     0    -23.9615318     23  1.200                                             
     0     -9.5240782     23  1.200                                             
     1     -9.0304911     23  1.520                                             
     1      8.1634956     23  1.520                                             
     2     -9.5240782      7  1.500                                             
  local pseudopotential read in
  partial core-charges read in
  partial kinetic energy density read in
  kinetic energy density of atom read in
  atomic valenz-charges read in
  non local Contribution for L=           0  read in
    real space projection operators read in
  non local Contribution for L=           0  read in
    real space projection operators read in
  non local Contribution for L=           1  read in
    real space projection operators read in
  non local Contribution for L=           1  read in
    real space projection operators read in
    PAW grid and wavefunctions read in
 
   number of l-projection  operators is LMAX  =           4
   number of lm-projection operators is LMMAX =           8
 
 Optimization of the real space projectors (new method)

 maximal supplied QI-value         = 16.25
 optimisation between [QCUT,QGAM] = [ 10.24, 20.48] = [ 29.35,117.42] Ry 
 Optimized for a Real-space Cutoff    1.55 Angstroem

   l    n(q)    QCUT    max X(q) W(low)/X(q) W(high)/X(q)  e(spline) 
   2      9    10.239     4.610    0.85E-04    0.29E-03    0.14E-06
   2      9    10.239     8.522    0.15E-03    0.50E-03    0.27E-06
   0     10    10.239    51.609    0.45E-04    0.99E-04    0.10E-06
   0     10    10.239    27.747    0.40E-04    0.93E-04    0.97E-07
   1      9    10.239    20.408    0.15E-03    0.78E-05    0.15E-06
   1      9    10.239    13.425    0.13E-03    0.71E-05    0.14E-06
 Optimization of the real space projectors (new method)

 maximal supplied QI-value         = 25.13
 optimisation between [QCUT,QGAM] = [ 10.05, 20.36] = [ 28.30,116.06] Ry 
 Optimized for a Real-space Cutoff    1.30 Angstroem

   l    n(q)    QCUT    max X(q) W(low)/X(q) W(high)/X(q)  e(spline) 
   0      8    10.053   115.676    0.49E-03    0.72E-03    0.18E-06
   0      8    10.053    87.132    0.49E-03    0.71E-03    0.18E-06
   1      7    10.053     4.429    0.32E-03    0.31E-03    0.18E-06
   1      7    10.053     2.733    0.23E-03    0.19E-03    0.20E-06
 Optimization of the real space projectors (new method)

 maximal supplied QI-value         = 24.76
 optimisation between [QCUT,QGAM] = [ 10.15, 20.30] = [ 28.85,115.39] Ry 
 Optimized for a Real-space Cutoff    1.38 Angstroem

   l    n(q)    QCUT    max X(q) W(low)/X(q) W(high)/X(q)  e(spline) 
   0      8    10.150    20.381    0.22E-03    0.32E-03    0.29E-06
   0      8    10.150    15.268    0.23E-03    0.35E-03    0.30E-06
   1      8    10.150     5.964    0.46E-03    0.53E-03    0.21E-06
   1      8    10.150     5.382    0.38E-03    0.45E-03    0.19E-06
  PAW_PBE Cu 22Jun2005                  :
 energy of atom  1       EATOM=-1390.9808
 kinetic energy error for atom=    0.0232 (will be added to EATOM!!)
  PAW_PBE C 08Apr2002                   :
 energy of atom  2       EATOM= -147.1560
 kinetic energy error for atom=    0.0288 (will be added to EATOM!!)
  PAW_PBE O 08Apr2002                   :
 energy of atom  3       EATOM= -432.3788
 kinetic energy error for atom=    0.1156 (will be added to EATOM!!)
 
 
 POSCAR: Cu C O                                  
  positions in cartesian coordinates
  velocities in cartesian coordinates
  No initial velocities read in
 exchange correlation table for  LEXCH =        8
   RHO(1)=    0.500       N(1)  =     2000
   RHO(2)=  100.500       N(2)  =     4000
 


--------------------------------------------------------------------------------------------------------


 ion  position               nearest neighbor table
   1  0.000  0.000  0.000-  17 2.56  20 2.56  29 2.56  31 2.56   2 2.56   4 2.56   5 2.56  13 2.56

   2  0.000  0.250  0.000-  18 2.56  17 2.56  30 2.56  29 2.56   1 2.56   3 2.56   6 2.56  14 2.56

   3  0.000  0.500  0.000-  19 2.56  18 2.56  32 2.56  30 2.56   2 2.56   4 2.56   7 2.56  15 2.56

   4  0.000  0.750  0.000-  20 2.56  19 2.56  31 2.56  32 2.56   1 2.56   3 2.56   8 2.56  16 2.56

   5  0.250  0.000  0.000-  21 2.56  17 2.56  24 2.56  20 2.56   1 2.56   6 2.56   8 2.56   9 2.56

   6  0.250  0.250  0.000-  22 2.56  21 2.56  18 2.56  17 2.56   2 2.56   5 2.56   7 2.56  10 2.56

   7  0.250  0.500  0.000-  23 2.56  22 2.56  19 2.56  18 2.56   3 2.56   6 2.56   8 2.56  11 2.56

   8  0.250  0.750  0.000-  24 2.56  23 2.56  20 2.56  19 2.56   4 2.56   5 2.56   7 2.56  12 2.56

   9  0.500  0.000  0.000-  25 2.56  21 2.56  28 2.56  24 2.56   5 2.56  10 2.56  12 2.56  13 2.56

  10  0.500  0.250  0.000-  26 2.56  25 2.56  22 2.56  21 2.56   6 2.56   9 2.56  11 2.56  14 2.56

  11  0.500  0.500  0.000-  27 2.56  26 2.56  23 2.56  22 2.56   7 2.56  10 2.56  12 2.56  15 2.56

  12  0.500  0.750  0.000-  28 2.56  27 2.56  24 2.56  23 2.56   8 2.56   9 2.56  11 2.56  16 2.56

  13  0.750  0.000  0.000-  29 2.56  25 2.56  31 2.56  28 2.56   1 2.56   9 2.56  14 2.56  16 2.56

  14  0.750  0.250  0.000-  30 2.56  29 2.56  26 2.56  25 2.56   2 2.56  10 2.56  13 2.56  15 2.56

  15  0.750  0.500  0.000-  32 2.56  30 2.56  27 2.56  26 2.56   3 2.56  11 2.56  14 2.56  16 2.56

  16  0.750  0.750  0.000-  31 2.56  28 2.56  32 2.56  27 2.56   4 2.56  12 2.56  13 2.56  15 2.56

  17  0.125  0.125  0.060-   1 2.56   2 2.56   5 2.56   6 2.56  18 2.56  20 2.56  21 2.56  29 2.56
                            34 2.58  37 2.58  33 2.58  38 2.61
  18  0.125  0.375  0.060-   2 2.56   3 2.56   6 2.56   7 2.56  17 2.56  19 2.56  22 2.56  30 2.56
                            35 2.58  34 2.58  39 2.59  38 2.59
  19  0.125  0.625  0.060-   3 2.56   4 2.56   7 2.56   8 2.56  18 2.56  20 2.56  23 2.56  32 2.56
                            35 2.58  40 2.58  36 2.58  39 2.61
  20  0.125  0.875  0.060-   4 2.56   1 2.56   8 2.56   5 2.56  17 2.56  19 2.56  24 2.56  31 2.56
                            37 2.58  40 2.58  36 2.58  33 2.58
  21  0.375  0.125  0.060-   5 2.56   6 2.56   9 2.56  10 2.56  17 2.56  22 2.56  24 2.56  25 2.56
                            41 2.58  37 2.58  42 2.59  38 2.59
  22  0.375  0.375  0.060-   6 2.56   7 2.56  10 2.56  11 2.56  18 2.56  21 2.56  23 2.56  26 2.56
                            43 2.58  42 2.58  39 2.58  38 2.58
  23  0.375  0.625  0.060-   7 2.56   8 2.56  11 2.56  12 2.56  19 2.56  22 2.56  24 2.56  27 2.56
                            44 2.58  40 2.58  43 2.59  39 2.59
  24  0.375  0.875  0.060-   8 2.56   5 2.56  12 2.56   9 2.56  20 2.56  21 2.56  23 2.56  28 2.56
                            41 2.58  44 2.58  37 2.58  40 2.58
  25  0.625  0.125  0.060-   9 2.56  10 2.56  13 2.56  14 2.56  21 2.56  26 2.56  28 2.56  29 2.56
                            41 2.58  46 2.58  45 2.58  42 2.61
  26  0.625  0.375  0.060-  10 2.56  11 2.56  14 2.56  15 2.56  22 2.56  25 2.56  27 2.56  30 2.56
                            47 2.58  46 2.58  43 2.59  42 2.59
  27  0.625  0.625  0.060-  11 2.56  12 2.56  15 2.56  16 2.56  23 2.56  26 2.56  28 2.56  32 2.56
                            44 2.58  47 2.58  48 2.58  43 2.61
  28  0.625  0.875  0.060-  12 2.56   9 2.56  16 2.56  13 2.56  24 2.56  25 2.56  27 2.56  31 2.56
                            41 2.58  44 2.58  48 2.58  45 2.58
  29  0.875  0.125  0.060-  13 2.56   1 2.56  14 2.56   2 2.56  17 2.56  25 2.56  30 2.56  31 2.56
                            34 2.58  46 2.58  45 2.58  33 2.58
  30  0.875  0.375  0.060-  14 2.56   2 2.56  15 2.56   3 2.56  18 2.56  26 2.56  29 2.56  32 2.56
                            35 2.58  47 2.58  34 2.58  46 2.58
  31  0.875  0.875  0.060-  16 2.56  13 2.56   4 2.56   1 2.56  20 2.56  28 2.56  29 2.56  32 2.56
                            48 2.58  45 2.58  36 2.58  33 2.58
  32  0.875  0.625  0.060-  15 2.56   3 2.56  16 2.56   4 2.56  19 2.56  27 2.56  30 2.56  31 2.56
                            35 2.58  47 2.58  48 2.58  36 2.58
  33  1.000  1.000  0.122-  49 2.53  63 2.54  61 2.54  52 2.54  36 2.55  45 2.55  37 2.56  34 2.56
                            31 2.58  29 2.58  20 2.58  17 2.58
  34  0.000  0.250  0.122-  50 2.53  49 2.53  61 2.54  62 2.54  33 2.56  35 2.56  46 2.56  38 2.57
                            17 2.58  18 2.58  29 2.58  30 2.58
  35  0.000  0.500  0.122-  50 2.53  51 2.53  64 2.54  62 2.54  36 2.56  34 2.56  47 2.56  39 2.57
                            19 2.58  18 2.58  32 2.58  30 2.58
  36  1.000  0.750  0.122-  51 2.53  63 2.54  64 2.54  52 2.54  48 2.55  33 2.55  40 2.56  35 2.56
                            31 2.58  20 2.58  32 2.58  19 2.58
  37  0.250  0.000  0.122-  53 2.53  49 2.53  52 2.54  56 2.54  33 2.56  41 2.56  40 2.56  38 2.57
                            17 2.58  21 2.58  20 2.58  24 2.58
  38  0.251  0.251  0.122-  39 2.53  42 2.53  49 2.54  50 2.54  53 2.54  37 2.57  34 2.57  22 2.58
                            18 2.59  21 2.59  54 2.60  17 2.61
  39  0.251  0.499  0.122-  38 2.53  43 2.53  51 2.54  55 2.54  50 2.54  40 2.57  35 2.57  22 2.58
                            23 2.59  18 2.59  54 2.60  19 2.61
  40  0.250  0.750  0.122-  55 2.53  51 2.53  52 2.54  56 2.54  36 2.56  44 2.56  37 2.56  39 2.57
                            19 2.58  23 2.58  20 2.58  24 2.58
  41  0.500  0.000  0.122-  53 2.53  57 2.53  60 2.54  56 2.54  45 2.56  37 2.56  44 2.56  42 2.57
                            25 2.58  21 2.58  28 2.58  24 2.58
  42  0.499  0.251  0.122-  38 2.53  43 2.53  57 2.54  58 2.54  53 2.54  46 2.57  41 2.57  22 2.58
                            26 2.59  21 2.59  54 2.60  25 2.61
  43  0.499  0.499  0.122-  39 2.53  42 2.53  59 2.54  58 2.54  55 2.54  47 2.57  44 2.57  22 2.58
                            26 2.59  23 2.59  54 2.60  27 2.61
  44  0.500  0.750  0.122-  55 2.53  59 2.53  60 2.54  56 2.54  48 2.56  40 2.56  41 2.56  43 2.57
                            27 2.58  23 2.58  28 2.58  24 2.58
  45  0.750  1.000  0.122-  57 2.53  63 2.54  60 2.54  61 2.54  48 2.55  33 2.55  46 2.56  41 2.56
                            31 2.58  29 2.58  28 2.58  25 2.58
  46  0.750  0.250  0.122-  58 2.53  57 2.53  61 2.54  62 2.54  45 2.56  47 2.56  34 2.56  42 2.57
                            25 2.58  26 2.58  29 2.58  30 2.58
  47  0.750  0.500  0.122-  58 2.53  59 2.53  64 2.54  62 2.54  48 2.56  46 2.56  35 2.56  43 2.57
                            27 2.58  26 2.58  32 2.58  30 2.58
  48  0.750  0.750  0.122-  59 2.53  63 2.54  60 2.54  64 2.54  36 2.55  45 2.55  44 2.56  47 2.56
                            31 2.58  28 2.58  32 2.58  27 2.58
  49  0.125  0.125  0.181-  34 2.53  37 2.53  33 2.53  38 2.54  52 2.56  61 2.56  53 2.56  50 2.56

  50  0.122  0.375  0.181-  62 2.53  34 2.53  35 2.53  38 2.54  39 2.54  49 2.56  51 2.56  54 2.59

  51  0.125  0.625  0.181-  40 2.53  35 2.53  36 2.53  39 2.54  64 2.56  52 2.56  55 2.56  50 2.56

  52  0.125  0.875  0.181-  37 2.54  40 2.54  33 2.54  36 2.54  56 2.55  51 2.56  49 2.56  63 2.56

  53  0.375  0.122  0.181-  56 2.53  37 2.53  41 2.53  38 2.54  42 2.54  49 2.56  57 2.56  54 2.59

  54  0.375  0.375  0.185-  65 1.85  53 2.59  50 2.59  58 2.59  55 2.59  38 2.60  42 2.60  39 2.60
                            43 2.60
  55  0.375  0.628  0.181-  56 2.53  40 2.53  44 2.53  39 2.54  43 2.54  51 2.56  59 2.56  54 2.59

  56  0.375  0.875  0.181-  55 2.53  53 2.53  40 2.54  44 2.54  37 2.54  41 2.54  52 2.55  60 2.55

  57  0.625  0.125  0.181-  46 2.53  41 2.53  45 2.53  42 2.54  60 2.56  61 2.56  58 2.56  53 2.56

  58  0.628  0.375  0.181-  62 2.53  46 2.53  47 2.53  42 2.54  43 2.54  57 2.56  59 2.56  54 2.59

  59  0.625  0.625  0.181-  44 2.53  47 2.53  48 2.53  43 2.54  60 2.56  64 2.56  55 2.56  58 2.56

  60  0.625  0.875  0.181-  41 2.54  44 2.54  45 2.54  48 2.54  56 2.55  59 2.56  57 2.56  63 2.56

  61  0.875  0.125  0.181-  34 2.54  46 2.54  33 2.54  45 2.54  62 2.55  57 2.56  49 2.56  63 2.56

  62  0.875  0.375  0.181-  58 2.53  50 2.53  46 2.54  47 2.54  34 2.54  35 2.54  61 2.55  64 2.55

  63  0.875  0.875  0.181-  33 2.54  36 2.54  45 2.54  48 2.54  60 2.56  64 2.56  61 2.56  52 2.56

  64  0.875  0.625  0.181-  35 2.54  47 2.54  36 2.54  48 2.54  62 2.55  59 2.56  51 2.56  63 2.56

  65  0.375  0.375  0.247-  66 1.16  54 1.85
  66  0.376  0.376  0.286-  65 1.16
 

IMPORTANT INFORMATION: All symmetrisations will be switched off!
NOSYMM'0;95;c: (Re-)initialisation of all symmetry stuff for point group C_1.

 
 
 KPOINTS: CO@Cu(100)                              

Automatic generation of k-mesh.
Space group operators:
 irot       det(A)        alpha          n_x          n_y          n_z        tau_x        tau_y        tau_z
    1     1.000000     0.000000     1.000000     0.000000     0.000000     0.000000     0.000000     0.000000
 
 Subroutine IBZKPT returns following result:
 ===========================================
 
 Found     10 irreducible k-points:
 
 Following reciprocal coordinates:
            Coordinates               Weight
  0.000000  0.000000  0.000000      1.000000
  0.250000  0.000000  0.000000      2.000000
  0.500000  0.000000  0.000000      1.000000
  0.000000  0.250000  0.000000      2.000000
  0.250000  0.250000  0.000000      2.000000
  0.500000  0.250000  0.000000      2.000000
 -0.250000  0.250000  0.000000      2.000000
  0.000000  0.500000  0.000000      1.000000
  0.250000  0.500000  0.000000      2.000000
  0.500000  0.500000  0.000000      1.000000
 
 Following cartesian coordinates:
            Coordinates               Weight
  0.000000  0.000000  0.000000      1.000000
  0.024452  0.000000  0.000000      2.000000
  0.048905  0.000000  0.000000      1.000000
  0.000000  0.024452  0.000000      2.000000
  0.024452  0.024452  0.000000      2.000000
  0.048905  0.024452  0.000000      2.000000
 -0.024452  0.024452  0.000000      2.000000
  0.000000  0.048905  0.000000      1.000000
  0.024452  0.048905  0.000000      2.000000
  0.048905  0.048905  0.000000      1.000000
 


--------------------------------------------------------------------------------------------------------




 Dimension of arrays:
   k-points           NKPTS =     10   k-points in BZ     NKDIM =     10   number of bands    NBANDS=    440
   number of dos      NEDOS =    301   number of ions     NIONS =     66
   non local maximal  LDIM  =      6   non local SUM 2l+1 LMDIM =     18
   total plane-waves  NPLWV = 375000
   max r-space proj   IRMAX =   1929   max aug-charges    IRDMAX=   3663
   dimension x,y,z NGX =    50 NGY =   50 NGZ =  150
   dimension x,y,z NGXF=   100 NGYF=  100 NGZF=  300
   support grid    NGXF=   100 NGYF=  100 NGZF=  300
   ions per type =              64   1   1
 NGX,Y,Z   is equivalent  to a cutoff of   8.13,  8.13,  8.31 a.u.
 NGXF,Y,Z  is equivalent  to a cutoff of  16.26, 16.26, 16.62 a.u.


 I would recommend the setting:
   dimension x,y,z NGX =    50 NGY =   50 NGZ =  147
 SYSTEM =  COCu                                    
 POSCAR =  Cu C O                                  

 Startparameter for this run:
   NWRITE =      2    write-flag & timer
   PREC   = normal    normal or accurate (medium, high low for compatibility)
   ISTART =      0    job   : 0-new  1-cont  2-samecut
   ICHARG =      2    charge: 1-file 2-atom 10-const
   ISPIN  =      1    spin polarized calculation?
   LNONCOLLINEAR =      F non collinear calculations
   LSORBIT =      F    spin-orbit coupling
   INIWAV =      1    electr: 0-lowe 1-rand  2-diag
   LASPH  =      F    aspherical Exc in radial PAW
   METAGGA=      F    non-selfconsistent MetaGGA calc.

 Electronic Relaxation 1
   ENCUT  =  400.0 eV  29.40 Ry    5.42 a.u.  16.67 16.67 48.92*2*pi/ulx,y,z
   ENINI  =  400.0     initial cutoff
   ENAUG  =  644.9 eV  augmentation charge cutoff
   NELM   =     60;   NELMIN=  2; NELMDL= -5     # of ELM steps 
   EDIFF  = 0.1E-04   stopping-criterion for ELM
   LREAL  =      T    real-space projection
   NLSPLINE    = F    spline interpolate recip. space projectors
   LCOMPAT=      F    compatible to vasp.4.4
   GGA_COMPAT  = T    GGA compatible to vasp.4.4-vasp.4.6
   LMAXPAW     = -100 max onsite density
   LMAXMIX     =    2 max onsite mixed and CHGCAR
   VOSKOWN=      0    Vosko Wilk Nusair interpolation
   ROPT   =   -0.00050  -0.00050  -0.00050
 Ionic relaxation
   EDIFFG = 0.1E-03   stopping-criterion for IOM
   NSW    =      0    number of steps for IOM
   NBLOCK =      1;   KBLOCK =      1    inner block; outer block 
   IBRION =     -1    ionic relax: 0-MD 1-quasi-New 2-CG
   NFREE  =      0    steps in history (QN), initial steepest desc. (CG)
   ISIF   =      2    stress and relaxation
   IWAVPR =     10    prediction:  0-non 1-charg 2-wave 3-comb
   ISYM   =      0    0-nonsym 1-usesym 2-fastsym
   LCORR  =      T    Harris-Foulkes like correction to forces

   POTIM  = 0.5000    time-step for ionic-motion
   TEIN   =    0.0    initial temperature
   TEBEG  =    0.0;   TEEND  =   0.0 temperature during run
   SMASS  =  -3.00    Nose mass-parameter (am)
   estimated Nose-frequenzy (Omega)   =  0.10E-29 period in steps =****** mass=  -0.239E-26a.u.
   SCALEE = 1.0000    scale energy and forces
   NPACO  =    256;   APACO  = 16.0  distance and # of slots for P.C.
   PSTRESS=    0.0 pullay stress

  Mass of Ions in am
   POMASS =  63.55 12.01 16.00
  Ionic Valenz
   ZVAL   =  11.00  4.00  6.00
  Atomic Wigner-Seitz radii
   RWIGS  =  -1.00 -1.00 -1.00
  virtual crystal weights 
   VCA    =   1.00  1.00  1.00
   NELECT =     714.0000    total number of electrons
   NUPDOWN=      -1.0000    fix difference up-down

 DOS related values:
   EMIN   =  10.00;   EMAX   =-10.00  energy-range for DOS
   EFERMI =   0.00
   ISMEAR =     1;   SIGMA  =   0.10  broadening in eV -4-tet -1-fermi 0-gaus

 Electronic relaxation 2 (details)
   IALGO  =     38    algorithm
   LDIAG  =      T    sub-space diagonalisation (order eigenvalues)
   LSUBROT=      F    optimize rotation matrix (better conditioning)
   TURBO    =      0    0=normal 1=particle mesh
   IRESTART =      0    0=no restart 2=restart with 2 vectors
   NREBOOT  =      0    no. of reboots
   NMIN     =      0    reboot dimension
   EREF     =   0.00    reference energy to select bands
   IMIX   =      4    mixing-type and parameters
     AMIX     =   0.40;   BMIX     =  1.00
     AMIX_MAG =   1.60;   BMIX_MAG =  1.00
     AMIN     =   0.10
     WC   =   100.;   INIMIX=   1;  MIXPRE=   1;  MAXMIX= -45

 Intra band minimization:
   WEIMIN = 0.0000     energy-eigenvalue tresh-hold
   EBREAK =  0.57E-08  absolut break condition
   DEPER  =   0.30     relativ break condition  

   TIME   =   0.40     timestep for ELM

  volume/ion in A,a.u.               =      47.51       320.64
  Fermi-wavevector in a.u.,A,eV,Ry     =   0.999662  1.889088 13.596635  0.999324
  Thomas-Fermi vector in A             =   2.131967
 
 Write flags
   LWAVE  =      T    write WAVECAR
   LCHARG =      T    write CHGCAR
   LVTOT  =      F    write LOCPOT, total local potential
   LVHAR  =      F    write LOCPOT, Hartree potential only
   LELF   =      F    write electronic localiz. function (ELF)
   LORBIT =      0    0 simple, 1 ext, 2 COOP (PROOUT)


 Dipole corrections
   LMONO  =      F    monopole corrections only (constant potential shift)
   LDIPOL =      F    correct potential (dipole corrections)
   IDIPOL =      0    1-x, 2-y, 3-z, 4-all directions 
   EPSILON=  1.0000000 bulk dielectric constant

 Exchange correlation treatment:
   GGA     =    --    GGA type
   LEXCH   =     8    internal setting for exchange type
   VOSKOWN=      0    Vosko Wilk Nusair interpolation
   LHFCALC =     F    Hartree Fock is set to
   LHFONE  =     F    Hartree Fock one center treatment
   AEXX    =    0.0000 exact exchange contribution

 Linear response parameters
   LEPSILON=     F    determine dielectric tensor
   LRPA    =     F    only Hartree local field effects (RPA)
   LNABLA  =     F    use nabla operator in PAW spheres
   LVEL    =     F    velocity operator in full k-point grid
   LINTERFAST=   F  fast interpolation
   KINTER  =     0    interpolate to denser k-point grid
   CSHIFT  =0.1000    complex shift for real part using Kramers Kronig
   OMEGAMAX=  -1.0    maximum frequency
   DEG_THRESHOLD= 0.2000000E-02 threshold for treating states as degnerate
   RTIME   =    0.100 relaxation time in fs

 Orbital magnetization related:
   ORBITALMAG=     F  switch on orbital magnetization
   LCHIMAG   =     F  perturbation theory with respect to B field
   DQ        =  0.001000  dq finite difference perturbation B field



--------------------------------------------------------------------------------------------------------


 Static calculation
 charge density and potential will be updated during run
 non-spin polarized calculation
 Variant of blocked Davidson
 Davidson routine will perform the subspace rotation
 perform sub-space diagonalisation
    after iterative eigenvector-optimisation
 modified Broyden-mixing scheme, WC =      100.0
 initial mixing is a Kerker type mixing with AMIX =  0.4000 and BMIX =      1.0000
 Hartree-type preconditioning will be used
 using additional bands           83
 real space projection scheme for non local part
 use partial core corrections
 calculate Harris-corrections to forces 
   (improved forces if not selfconsistent)
 use gradient corrections 
 use of overlap-Matrix (Vanderbilt PP)
 Methfessel and Paxton  Order N= 1 SIGMA  =   0.10


--------------------------------------------------------------------------------------------------------


  energy-cutoff  :      400.00
  volume of cell :     3135.91
      direct lattice vectors                 reciprocal lattice vectors
    10.224000000  0.000000000  0.000000000     0.097809077  0.000000000  0.000000000
     0.000000000 10.224000000  0.000000000     0.000000000  0.097809077  0.000000000
     0.000000000  0.000000000 30.000000000     0.000000000  0.000000000  0.033333333

  length of vectors
    10.224000000 10.224000000 30.000000000     0.097809077  0.097809077  0.033333333


 
 k-points in units of 2pi/SCALE and weight: CO@Cu(100)                              
   0.00000000  0.00000000  0.00000000       0.062
   0.02445227  0.00000000  0.00000000       0.125
   0.04890454  0.00000000  0.00000000       0.062
   0.00000000  0.02445227  0.00000000       0.125
   0.02445227  0.02445227  0.00000000       0.125
   0.04890454  0.02445227  0.00000000       0.125
  -0.02445227  0.02445227  0.00000000       0.125
   0.00000000  0.04890454  0.00000000       0.062
   0.02445227  0.04890454  0.00000000       0.125
   0.04890454  0.04890454  0.00000000       0.062
 
 k-points in reciprocal lattice and weights: CO@Cu(100)                              
   0.00000000  0.00000000  0.00000000       0.062
   0.25000000  0.00000000  0.00000000       0.125
   0.50000000  0.00000000  0.00000000       0.062
   0.00000000  0.25000000  0.00000000       0.125
   0.25000000  0.25000000  0.00000000       0.125
   0.50000000  0.25000000  0.00000000       0.125
  -0.25000000  0.25000000  0.00000000       0.125
   0.00000000  0.50000000  0.00000000       0.062
   0.25000000  0.50000000  0.00000000       0.125
   0.50000000  0.50000000  0.00000000       0.062
 
 position of ions in fractional coordinates (direct lattice) 
   0.00000000  0.00000000  0.00000000
   0.00000000  0.25000000  0.00000000
   0.00000000  0.50000000  0.00000000
   0.00000000  0.75000000  0.00000000
   0.25000000  0.00000000  0.00000000
   0.25000000  0.25000000  0.00000000
   0.25000000  0.50000000  0.00000000
   0.25000000  0.75000000  0.00000000
   0.50000000  0.00000000  0.00000000
   0.50000000  0.25000000  0.00000000
   0.50000000  0.50000000  0.00000000
   0.50000000  0.75000000  0.00000000
   0.75000000  0.00000000  0.00000000
   0.75000000  0.25000000  0.00000000
   0.75000000  0.50000000  0.00000000
   0.75000000  0.75000000  0.00000000
   0.12499902  0.12499902  0.06024500
   0.12499902  0.37499902  0.06024500
   0.12499902  0.62499902  0.06024500
   0.12499902  0.87499902  0.06024500
   0.37499902  0.12499902  0.06024500
   0.37499902  0.37499902  0.06024500
   0.37499902  0.62499902  0.06024500
   0.37499902  0.87499902  0.06024500
   0.62499902  0.12499902  0.06024500
   0.62499902  0.37499902  0.06024500
   0.62499902  0.62499902  0.06024500
   0.62499902  0.87499902  0.06024500
   0.87499902  0.12499902  0.06024500
   0.87499902  0.37499902  0.06024500
   0.87499902  0.87499902  0.06024500
   0.87499902  0.62499902  0.06024500
   0.99984136  0.99984136  0.12171178
   0.00028954  0.24987431  0.12160881
   0.00028940  0.50012342  0.12160879
   0.99983928  0.75015957  0.12171032
   0.24987431  0.00028954  0.12160881
   0.25137296  0.25137296  0.12226717
   0.25136681  0.49863572  0.12226159
   0.24987477  0.74971019  0.12160938
   0.50012342  0.00028940  0.12160879
   0.49863572  0.25136681  0.12226159
   0.49864184  0.49864184  0.12225601
   0.50012294  0.74971031  0.12160936
   0.75015957  0.99983928  0.12171032
   0.74971019  0.24987477  0.12160938
   0.74971031  0.50012294  0.12160936
   0.75016167  0.75016167  0.12170885
   0.12496312  0.12496312  0.18085169
   0.12227661  0.37499864  0.18124494
   0.12495735  0.62504226  0.18084948
   0.12547237  0.87500145  0.18099859
   0.37499864  0.12227661  0.18124494
   0.37498942  0.37498942  0.18539814
   0.37499862  0.62772602  0.18124548
   0.37499882  0.87499874  0.18101097
   0.62504226  0.12495735  0.18084948
   0.62772602  0.37499862  0.18124548
   0.62504806  0.62504806  0.18084727
   0.62452587  0.87500146  0.18099751
   0.87500145  0.12547237  0.18099859
   0.87499874  0.37499882  0.18101097
   0.87499907  0.87499907  0.18118613
   0.87500146  0.62452587  0.18099751
   0.37549960  0.37549960  0.24697361
   0.37582405  0.37582405  0.28554409
 
 position of ions in cartesian coordinates  (Angst):
   0.00000000  0.00000000  0.00000000
   0.00000000  2.55600000  0.00000000
   0.00000000  5.11200000  0.00000000
   0.00000000  7.66800000  0.00000000
   2.55600000  0.00000000  0.00000000
   2.55600000  2.55600000  0.00000000
   2.55600000  5.11200000  0.00000000
   2.55600000  7.66800000  0.00000000
   5.11200000  0.00000000  0.00000000
   5.11200000  2.55600000  0.00000000
   5.11200000  5.11200000  0.00000000
   5.11200000  7.66800000  0.00000000
   7.66800000  0.00000000  0.00000000
   7.66800000  2.55600000  0.00000000
   7.66800000  5.11200000  0.00000000
   7.66800000  7.66800000  0.00000000
   1.27799000  1.27799000  1.80735000
   1.27799000  3.83399000  1.80735000
   1.27799000  6.38999000  1.80735000
   1.27799000  8.94599000  1.80735000
   3.83399000  1.27799000  1.80735000
   3.83399000  3.83399000  1.80735000
   3.83399000  6.38999000  1.80735000
   3.83399000  8.94599000  1.80735000
   6.38999000  1.27799000  1.80735000
   6.38999000  3.83399000  1.80735000
   6.38999000  6.38999000  1.80735000
   6.38999000  8.94599000  1.80735000
   8.94599000  1.27799000  1.80735000
   8.94599000  3.83399000  1.80735000
   8.94599000  8.94599000  1.80735000
   8.94599000  6.38999000  1.80735000
  10.22237802 10.22237802  3.65135354
   0.00296029  2.55471494  3.64826432
   0.00295878  5.11326188  3.64826370
  10.22235678  7.66963143  3.65130955
   2.55471494  0.00296029  3.64826432
   2.57003711  2.57003711  3.66801519
   2.56997432  5.09805157  3.66784778
   2.55471969  7.66503697  3.64828132
   5.11326188  0.00295878  3.64826370
   5.09805157  2.56997432  3.66784778
   5.09811416  5.09811416  3.66768020
   5.11325693  7.66503823  3.64828076
   7.66963143 10.22235678  3.65130955
   7.66503697  2.55471969  3.64828132
   7.66503823  5.11325693  3.64828076
   7.66965292  7.66965292  3.65126546
   1.27762299  1.27762299  5.42555074
   1.25015601  3.83398614  5.43734807
   1.27756396  6.39043208  5.42548437
   1.28282951  8.94601487  5.42995771
   3.83398614  1.25015601  5.43734807
   3.83389180  3.83389180  5.56194413
   3.83398585  6.41787080  5.43736436
   3.83398796  8.94598715  5.43032915
   6.39043208  1.27756396  5.42548437
   6.41787080  3.83398585  5.43736436
   6.39049134  6.39049134  5.42541812
   6.38515252  8.94601489  5.42992519
   8.94601487  1.28282951  5.42995771
   8.94598715  3.83398796  5.43032915
   8.94599053  8.94599053  5.43558389
   8.94601489  6.38515252  5.42992519
   3.83910793  3.83910793  7.40920819
   3.84242504  3.84242504  8.56632260
 


--------------------------------------------------------------------------------------------------------


 k-point  1 :   0.0000 0.0000 0.0000  plane waves:   57061
 k-point  2 :   0.2500 0.0000 0.0000  plane waves:   56945
 k-point  3 :   0.5000 0.0000 0.0000  plane waves:   56974
 k-point  4 :   0.0000 0.2500 0.0000  plane waves:   56945
 k-point  5 :   0.2500 0.2500 0.0000  plane waves:   56940
 k-point  6 :   0.5000 0.2500 0.0000  plane waves:   56958
 k-point  7 :  -0.2500 0.2500 0.0000  plane waves:   56940
 k-point  8 :   0.0000 0.5000 0.0000  plane waves:   56974
 k-point  9 :   0.2500 0.5000 0.0000  plane waves:   56958
 k-point 10 :   0.5000 0.5000 0.0000  plane waves:   56848

 maximum and minimum number of plane-waves per node :     57061    56848

 maximum number of plane-waves:     57061
 maximum index in each direction: 
   IXMAX=   16   IYMAX=   16   IZMAX=   48
   IXMIN=  -17   IYMIN=  -17   IZMIN=  -48

 WARNING: aliasing errors must be expected set NGX to  68 to avoid them
 WARNING: aliasing errors must be expected set NGY to  68 to avoid them
 WARNING: aliasing errors must be expected set NGZ to 194 to avoid them
 aliasing errors are usually negligible using standard VASP settings
 and one can safely disregard these warnings

 serial   3D FFT for wavefunctions
 parallel 3D FFT for charge:
    minimum data exchange during FFTs selected (reduces bandwidth)


 total amount of memory used by VASP on root node   288201. kBytes
========================================================================

   base      :      30000. kBytes
   nonlr-proj:      20787. kBytes
   fftplans  :       6625. kBytes
   grid      :      24688. kBytes
   one-center:       1026. kBytes
   wavefun   :     205075. kBytes
 
     INWAV:  cpu time    0.00: real time    0.00
 Broyden mixing: mesh for mixing (old mesh)
   NGX = 33   NGY = 33   NGZ = 97
  (NGX  =100   NGY  =100   NGZ  =300)
  gives a total of 105633 points

 initial charge density was supplied:
 charge density of overlapping atoms calculated
 number of electron     714.0000000 magnetization 
 keeping initial charge density in first step


--------------------------------------------------------------------------------------------------------


 Maximum index for non-local projection operator         1833
 Maximum index for augmentation-charges          277 (set IRDMAX)


--------------------------------------------------------------------------------------------------------


 First call to EWALD:  gamma=   0.121
 Maximum number of real-space cells 4x 4x 2
 Maximum number of reciprocal cells 2x 2x 5

 FEWALD executed in parallel
    FEWALD:  cpu time    0.00: real time    0.00


----------------------------------------- Iteration    1(   1)  ---------------------------------------


    POTLOK:  cpu time    0.14: real time    0.14
    SETDIJ:  cpu time    0.01: real time    0.01
     EDDAV:  cpu time   71.84: real time   71.99
       DOS:  cpu time    0.00: real time    0.00
    --------------------------------------------
      LOOP:  cpu time   71.99: real time   72.38

 eigenvalue-minimisations  :  8800
 total energy-change (2. order) : 0.6025466E+04  (-0.2509477E+05)
 number of electron     714.0000000 magnetization 
 augmentation part      714.0000000 magnetization 

 Free energy of the ion-electron system (eV)
  ---------------------------------------------------
  alpha Z        PSCENC =       978.75035419
  Ewald energy   TEWEN  =    562740.93739523
  -Hartree energ DENC   =   -647112.49215241
  -exchange      EXHF   =         0.00000000
  -V(xc)+E(xc)   XCENC  =      2950.33137581
  PAW double counting   =     79060.29775548   -85836.54149582
  entropy T*S    EENTRO =        -0.00584985
  eigenvalues    EBANDS =      3643.50954433
  atomic energy  EATOM  =     89600.67939269
  ---------------------------------------------------
  free energy    TOTEN  =      6025.46631965 eV

  energy without entropy =     6025.47216950  energy(sigma->0) =     6025.46826960


--------------------------------------------------------------------------------------------------------




----------------------------------------- Iteration    1(   2)  ---------------------------------------


     EDDAV:  cpu time   71.95: real time   72.04
       DOS:  cpu time    0.00: real time    0.00
    --------------------------------------------
      LOOP:  cpu time   71.95: real time   72.19

 eigenvalue-minimisations  :  8800
 total energy-change (2. order) :-0.5660074E+04  (-0.5438930E+04)
 number of electron     714.0000000 magnetization 
 augmentation part      714.0000000 magnetization 

 Free energy of the ion-electron system (eV)
  ---------------------------------------------------
  alpha Z        PSCENC =       978.75035419
  Ewald energy   TEWEN  =    562740.93739523
  -Hartree energ DENC   =   -647112.49215241
  -exchange      EXHF   =         0.00000000
  -V(xc)+E(xc)   XCENC  =      2950.33137581
  PAW double counting   =     79060.29775548   -85836.54149582
  entropy T*S    EENTRO =        -0.00599400
  eigenvalues    EBANDS =     -2016.56408588
  atomic energy  EATOM  =     89600.67939269
  ---------------------------------------------------
  free energy    TOTEN  =       365.39254529 eV

  energy without entropy =      365.39853929  energy(sigma->0) =      365.39454329


--------------------------------------------------------------------------------------------------------




----------------------------------------- Iteration    1(   3)  ---------------------------------------


     EDDAV:  cpu time   81.81: real time   81.87
       DOS:  cpu time    0.00: real time    0.00
    --------------------------------------------
      LOOP:  cpu time   81.81: real time   82.00

 eigenvalue-minimisations  : 10380
 total energy-change (2. order) :-0.5984175E+03  (-0.5545495E+03)
 number of electron     714.0000000 magnetization 
 augmentation part      714.0000000 magnetization 

 Free energy of the ion-electron system (eV)
  ---------------------------------------------------
  alpha Z        PSCENC =       978.75035419
  Ewald energy   TEWEN  =    562740.93739523
  -Hartree energ DENC   =   -647112.49215241
  -exchange      EXHF   =         0.00000000
  -V(xc)+E(xc)   XCENC  =      2950.33137581
  PAW double counting   =     79060.29775548   -85836.54149582
  entropy T*S    EENTRO =        -0.01076330
  eigenvalues    EBANDS =     -2614.97683255
  atomic energy  EATOM  =     89600.67939269
  ---------------------------------------------------
  free energy    TOTEN  =      -233.02497068 eV

  energy without entropy =     -233.01420738  energy(sigma->0) =     -233.02138292


--------------------------------------------------------------------------------------------------------




----------------------------------------- Iteration    1(   4)  ---------------------------------------


     EDDAV:  cpu time   95.74: real time   95.83
       DOS:  cpu time    0.00: real time    0.00
    --------------------------------------------
      LOOP:  cpu time   95.74: real time   95.96

 eigenvalue-minimisations  : 12620
 total energy-change (2. order) :-0.5139165E+02  (-0.4967297E+02)
 number of electron     714.0000000 magnetization 
 augmentation part      714.0000000 magnetization 

 Free energy of the ion-electron system (eV)
  ---------------------------------------------------
  alpha Z        PSCENC =       978.75035419
  Ewald energy   TEWEN  =    562740.93739523
  -Hartree energ DENC   =   -647112.49215241
  -exchange      EXHF   =         0.00000000
  -V(xc)+E(xc)   XCENC  =      2950.33137581
  PAW double counting   =     79060.29775548   -85836.54149582
  entropy T*S    EENTRO =        -0.00399723
  eigenvalues    EBANDS =     -2666.37524523
  atomic energy  EATOM  =     89600.67939269
  ---------------------------------------------------
  free energy    TOTEN  =      -284.41661729 eV

  energy without entropy =     -284.41262006  energy(sigma->0) =     -284.41528488


--------------------------------------------------------------------------------------------------------




----------------------------------------- Iteration    1(   5)  ---------------------------------------


     EDDAV:  cpu time   99.61: real time   99.82
       DOS:  cpu time    0.00: real time    0.00
    CHARGE:  cpu time    2.83: real time    2.84
    MIXING:  cpu time    0.01: real time    0.00
    --------------------------------------------
      LOOP:  cpu time  102.45: real time  102.83

 eigenvalue-minimisations  : 13240
 total energy-change (2. order) :-0.2084833E+01  (-0.1958627E+01)
 number of electron     714.0000804 magnetization 
 augmentation part      418.6716048 magnetization 

 Broyden mixing:
  rms(total) = 0.58555E+01    rms(broyden)= 0.58552E+01
  rms(prec ) = 0.60518E+01
  weight for this iteration     100.00

 Free energy of the ion-electron system (eV)
  ---------------------------------------------------
  alpha Z        PSCENC =       978.75035419
  Ewald energy   TEWEN  =    562740.93739523
  -Hartree energ DENC   =   -647112.49215241
  -exchange      EXHF   =         0.00000000
  -V(xc)+E(xc)   XCENC  =      2950.33137581
  PAW double counting   =     79060.29775548   -85836.54149582
  entropy T*S    EENTRO =        -0.00134292
  eigenvalues    EBANDS =     -2668.46273287
  atomic energy  EATOM  =     89600.67939269
  ---------------------------------------------------
  free energy    TOTEN  =      -286.50145062 eV

  energy without entropy =     -286.50010770  energy(sigma->0) =     -286.50100298


--------------------------------------------------------------------------------------------------------




----------------------------------------- Iteration    1(   6)  ---------------------------------------


    POTLOK:  cpu time    0.13: real time    0.13
    SETDIJ:  cpu time    0.01: real time    0.01
     EDDAV:  cpu time   81.85: real time   81.91
       DOS:  cpu time    0.00: real time    0.00
    CHARGE:  cpu time    2.78: real time    2.78
    MIXING:  cpu time    0.00: real time    0.00
    --------------------------------------------
      LOOP:  cpu time   84.78: real time   84.99

 eigenvalue-minimisations  : 10400
 total energy-change (2. order) : 0.2555128E+02  (-0.6057339E+02)
 number of electron     714.0000808 magnetization 
 augmentation part      468.7471569 magnetization 

 Broyden mixing:
  rms(total) = 0.32910E+01    rms(broyden)= 0.32900E+01
  rms(prec ) = 0.34176E+01
  weight for this iteration     100.00

 eigenvalues of (default mixing * dielectric matrix)
  average eigenvalue GAMMA=   0.6454
  0.6454

 Free energy of the ion-electron system (eV)
  ---------------------------------------------------
  alpha Z        PSCENC =       978.75035419
  Ewald energy   TEWEN  =    562740.93739523
  -Hartree energ DENC   =   -645328.71520122
  -exchange      EXHF   =         0.00000000
  -V(xc)+E(xc)   XCENC  =      2867.25381740
  PAW double counting   =     79941.13410902   -86373.91638778
  entropy T*S    EENTRO =        -0.01540023
  eigenvalues    EBANDS =     -4687.05824987
  atomic energy  EATOM  =     89600.67939269
  ---------------------------------------------------
  free energy    TOTEN  =      -260.95017056 eV

  energy without entropy =     -260.93477033  energy(sigma->0) =     -260.94503715


--------------------------------------------------------------------------------------------------------




----------------------------------------- Iteration    1(   7)  ---------------------------------------


    POTLOK:  cpu time    0.13: real time    0.13
    SETDIJ:  cpu time    0.01: real time    0.01
     EDDAV:  cpu time   81.24: real time   81.30
       DOS:  cpu time    0.00: real time    0.00
    CHARGE:  cpu time    2.80: real time    2.81
    MIXING:  cpu time    0.00: real time    0.00
    --------------------------------------------
      LOOP:  cpu time   84.19: real time   84.41

 eigenvalue-minimisations  : 10320
 total energy-change (2. order) : 0.2560786E+02  (-0.1335645E+02)
 number of electron     714.0000868 magnetization 
 augmentation part      454.3207702 magnetization 

 Broyden mixing:
  rms(total) = 0.10403E+01    rms(broyden)= 0.10401E+01
  rms(prec ) = 0.10767E+01
  weight for this iteration     100.00

 eigenvalues of (default mixing * dielectric matrix)
  average eigenvalue GAMMA=   0.5405
  0.5959  0.4851

 Free energy of the ion-electron system (eV)
  ---------------------------------------------------
  alpha Z        PSCENC =       978.75035419
  Ewald energy   TEWEN  =    562740.93739523
  -Hartree energ DENC   =   -646167.83929329
  -exchange      EXHF   =         0.00000000
  -V(xc)+E(xc)   XCENC  =      2893.41089703
  PAW double counting   =     81487.21209237   -88201.23909852
  entropy T*S    EENTRO =        -0.02343232
  eigenvalues    EBANDS =     -3567.23062069
  atomic energy  EATOM  =     89600.67939269
  ---------------------------------------------------
  free energy    TOTEN  =      -235.34231330 eV

  energy without entropy =     -235.31888099  energy(sigma->0) =     -235.33450253


--------------------------------------------------------------------------------------------------------




----------------------------------------- Iteration    1(   8)  ---------------------------------------


    POTLOK:  cpu time    0.13: real time    0.13
    SETDIJ:  cpu time    0.01: real time    0.01
     EDDAV:  cpu time   81.61: real time   81.79
       DOS:  cpu time    0.00: real time    0.00
    CHARGE:  cpu time    2.80: real time    2.81
    MIXING:  cpu time    0.01: real time    0.01
    --------------------------------------------
      LOOP:  cpu time   84.56: real time   84.88

 eigenvalue-minimisations  : 10380
 total energy-change (2. order) : 0.1189222E+00  (-0.2561307E+01)
 number of electron     714.0000806 magnetization 
 augmentation part      451.5173823 magnetization 

 Broyden mixing:
  rms(total) = 0.39539E+00    rms(broyden)= 0.39527E+00
  rms(prec ) = 0.42165E+00
  weight for this iteration     100.00

 eigenvalues of (default mixing * dielectric matrix)
  average eigenvalue GAMMA=   0.8553
  1.5463  0.6396  0.3801

 Free energy of the ion-electron system (eV)
  ---------------------------------------------------
  alpha Z        PSCENC =       978.75035419
  Ewald energy   TEWEN  =    562740.93739523
  -Hartree energ DENC   =   -646236.78791332
  -exchange      EXHF   =         0.00000000
  -V(xc)+E(xc)   XCENC  =      2895.29841359
  PAW double counting   =     82052.93061354   -88822.88669735
  entropy T*S    EENTRO =        -0.02508695
  eigenvalues    EBANDS =     -3444.11986272
  atomic energy  EATOM  =     89600.67939269
  ---------------------------------------------------
  free energy    TOTEN  =      -235.22339110 eV

  energy without entropy =     -235.19830415  energy(sigma->0) =     -235.21502878


--------------------------------------------------------------------------------------------------------




----------------------------------------- Iteration    1(   9)  ---------------------------------------


    POTLOK:  cpu time    0.13: real time    0.13
    SETDIJ:  cpu time    0.01: real time    0.01
     EDDAV:  cpu time   87.35: real time   87.42
       DOS:  cpu time    0.00: real time    0.00
    CHARGE:  cpu time    2.81: real time    2.81
    MIXING:  cpu time    0.00: real time    0.01
    --------------------------------------------
      LOOP:  cpu time   90.31: real time   90.53

 eigenvalue-minimisations  : 11280
 total energy-change (2. order) :-0.4970975E+00  (-0.1040454E+01)
 number of electron     714.0000831 magnetization 
 augmentation part      447.7305664 magnetization 

 Broyden mixing:
  rms(total) = 0.59649E+00    rms(broyden)= 0.59642E+00
  rms(prec ) = 0.62358E+00
  weight for this iteration     100.00

 eigenvalues of (default mixing * dielectric matrix)
  average eigenvalue GAMMA=   0.8201
  1.7474  0.5860  0.5860  0.3612

 Free energy of the ion-electron system (eV)
  ---------------------------------------------------
  alpha Z        PSCENC =       978.75035419
  Ewald energy   TEWEN  =    562740.93739523
  -Hartree energ DENC   =   -646371.08962163
  -exchange      EXHF   =         0.00000000
  -V(xc)+E(xc)   XCENC  =      2895.13941022
  PAW double counting   =     83424.09532933   -90300.43561732
  entropy T*S    EENTRO =         0.00002904
  eigenvalues    EBANDS =     -3203.79716031
  atomic energy  EATOM  =     89600.67939269
  ---------------------------------------------------
  free energy    TOTEN  =      -235.72048856 eV

  energy without entropy =     -235.72051760  energy(sigma->0) =     -235.72049824


--------------------------------------------------------------------------------------------------------




----------------------------------------- Iteration    1(  10)  ---------------------------------------


    POTLOK:  cpu time    0.13: real time    0.13
    SETDIJ:  cpu time    0.01: real time    0.01
     EDDAV:  cpu time   81.93: real time   82.00
       DOS:  cpu time    0.00: real time    0.00
    CHARGE:  cpu time    2.82: real time    2.82
    MIXING:  cpu time    0.00: real time    0.01
    --------------------------------------------
      LOOP:  cpu time   84.90: real time   85.22

 eigenvalue-minimisations  : 10420
 total energy-change (2. order) : 0.2894129E+00  (-0.2215993E+00)
 number of electron     714.0000809 magnetization 
 augmentation part      448.5477321 magnetization 

 Broyden mixing:
  rms(total) = 0.40881E+00    rms(broyden)= 0.40880E+00
  rms(prec ) = 0.43248E+00
  weight for this iteration     100.00

 eigenvalues of (default mixing * dielectric matrix)
  average eigenvalue GAMMA=   0.8865
  2.1622  0.7901  0.7901  0.3959  0.2939

 Free energy of the ion-electron system (eV)
  ---------------------------------------------------
  alpha Z        PSCENC =       978.75035419
  Ewald energy   TEWEN  =    562740.93739523
  -Hartree energ DENC   =   -646314.80297317
  -exchange      EXHF   =         0.00000000
  -V(xc)+E(xc)   XCENC  =      2892.23114397
  PAW double counting   =     83651.77583220   -90530.40001564
  entropy T*S    EENTRO =        -0.00919265
  eigenvalues    EBANDS =     -3254.59301246
  atomic energy  EATOM  =     89600.67939269
  ---------------------------------------------------
  free energy    TOTEN  =      -235.43107564 eV

  energy without entropy =     -235.42188299  energy(sigma->0) =     -235.42801142


--------------------------------------------------------------------------------------------------------




----------------------------------------- Iteration    1(  11)  ---------------------------------------


    POTLOK:  cpu time    0.13: real time    0.13
    SETDIJ:  cpu time    0.01: real time    0.01
     EDDAV:  cpu time   83.57: real time   83.74
       DOS:  cpu time    0.00: real time    0.00
    CHARGE:  cpu time    2.80: real time    2.81
    MIXING:  cpu time    0.01: real time    0.01
    --------------------------------------------
      LOOP:  cpu time   86.53: real time   86.84

 eigenvalue-minimisations  : 10700
 total energy-change (2. order) : 0.2518207E+00  (-0.1377421E+00)
 number of electron     714.0000811 magnetization 
 augmentation part      450.3828344 magnetization 

 Broyden mixing:
  rms(total) = 0.11097E+00    rms(broyden)= 0.11093E+00
  rms(prec ) = 0.12509E+00
  weight for this iteration     100.00

 eigenvalues of (default mixing * dielectric matrix)
  average eigenvalue GAMMA=   0.8422
  2.2197  0.8040  0.8040  0.5805  0.3563  0.2887

 Free energy of the ion-electron system (eV)
  ---------------------------------------------------
  alpha Z        PSCENC =       978.75035419
  Ewald energy   TEWEN  =    562740.93739523
  -Hartree energ DENC   =   -646235.01395152
  -exchange      EXHF   =         0.00000000
  -V(xc)+E(xc)   XCENC  =      2888.11185325
  PAW double counting   =     83935.30685283   -90812.06334461
  entropy T*S    EENTRO =        -0.02538706
  eigenvalues    EBANDS =     -3331.86241994
  atomic energy  EATOM  =     89600.67939269
  ---------------------------------------------------
  free energy    TOTEN  =      -235.17925494 eV

  energy without entropy =     -235.15386788  energy(sigma->0) =     -235.17079259


--------------------------------------------------------------------------------------------------------




----------------------------------------- Iteration    1(  12)  ---------------------------------------


    POTLOK:  cpu time    0.13: real time    0.13
    SETDIJ:  cpu time    0.01: real time    0.01
     EDDAV:  cpu time   82.16: real time   82.33
       DOS:  cpu time    0.00: real time    0.00
    CHARGE:  cpu time    2.81: real time    2.82
    MIXING:  cpu time    0.01: real time    0.01
    --------------------------------------------
      LOOP:  cpu time   85.12: real time   85.56

 eigenvalue-minimisations  : 10480
 total energy-change (2. order) :-0.1864714E-01  (-0.4947914E-01)
 number of electron     714.0000824 magnetization 
 augmentation part      450.8099599 magnetization 

 Broyden mixing:
  rms(total) = 0.91384E-01    rms(broyden)= 0.91376E-01
  rms(prec ) = 0.10062E+00
  weight for this iteration     100.00

 eigenvalues of (default mixing * dielectric matrix)
  average eigenvalue GAMMA=   0.8528
  2.2146  1.2555  0.7385  0.7385  0.4064  0.3568  0.2595

 Free energy of the ion-electron system (eV)
  ---------------------------------------------------
  alpha Z        PSCENC =       978.75035419
  Ewald energy   TEWEN  =    562740.93739523
  -Hartree energ DENC   =   -646248.09742932
  -exchange      EXHF   =         0.00000000
  -V(xc)+E(xc)   XCENC  =      2887.66856626
  PAW double counting   =     84032.05226670   -90911.06265051
  entropy T*S    EENTRO =        -0.02241949
  eigenvalues    EBANDS =     -3316.10337784
  atomic energy  EATOM  =     89600.67939269
  ---------------------------------------------------
  free energy    TOTEN  =      -235.19790209 eV

  energy without entropy =     -235.17548259  energy(sigma->0) =     -235.19042892


--------------------------------------------------------------------------------------------------------




----------------------------------------- Iteration    1(  13)  ---------------------------------------


    POTLOK:  cpu time    0.13: real time    0.13
    SETDIJ:  cpu time    0.01: real time    0.01
     EDDAV:  cpu time   78.87: real time   78.95
       DOS:  cpu time    0.00: real time    0.00
    CHARGE:  cpu time    2.81: real time    2.81
    MIXING:  cpu time    0.01: real time    0.01
    --------------------------------------------
      LOOP:  cpu time   81.83: real time   82.06

 eigenvalue-minimisations  :  9940
 total energy-change (2. order) : 0.8922395E-02  (-0.1250520E-01)
 number of electron     714.0000817 magnetization 
 augmentation part      450.7799843 magnetization 

 Broyden mixing:
  rms(total) = 0.63853E-01    rms(broyden)= 0.63849E-01
  rms(prec ) = 0.68409E-01
  weight for this iteration     100.00

 eigenvalues of (default mixing * dielectric matrix)
  average eigenvalue GAMMA=   0.8925
  2.1641  1.7220  0.8096  0.8096  0.6527  0.3754  0.3389  0.2675

 Free energy of the ion-electron system (eV)
  ---------------------------------------------------
  alpha Z        PSCENC =       978.75035419
  Ewald energy   TEWEN  =    562740.93739523
  -Hartree energ DENC   =   -646274.82593485
  -exchange      EXHF   =         0.00000000
  -V(xc)+E(xc)   XCENC  =      2887.90969927
  PAW double counting   =     84081.45304283   -90963.48022570
  entropy T*S    EENTRO =        -0.02124138
  eigenvalues    EBANDS =     -3286.59146197
  atomic energy  EATOM  =     89600.67939269
  ---------------------------------------------------
  free energy    TOTEN  =      -235.18897969 eV

  energy without entropy =     -235.16773831  energy(sigma->0) =     -235.18189923


--------------------------------------------------------------------------------------------------------




----------------------------------------- Iteration    1(  14)  ---------------------------------------


    POTLOK:  cpu time    0.13: real time    0.13
    SETDIJ:  cpu time    0.01: real time    0.01
     EDDAV:  cpu time   81.12: real time   81.18
       DOS:  cpu time    0.00: real time    0.00
    CHARGE:  cpu time    2.80: real time    2.81
    MIXING:  cpu time    0.01: real time    0.01
    --------------------------------------------
      LOOP:  cpu time   84.07: real time   84.29

 eigenvalue-minimisations  : 10300
 total energy-change (2. order) : 0.1144991E-01  (-0.4952121E-02)
 number of electron     714.0000821 magnetization 
 augmentation part      450.4227793 magnetization 

 Broyden mixing:
  rms(total) = 0.26955E-01    rms(broyden)= 0.26943E-01
  rms(prec ) = 0.29666E-01
  weight for this iteration     100.00

 eigenvalues of (default mixing * dielectric matrix)
  average eigenvalue GAMMA=   0.9069
  2.1793  2.1793  0.8101  0.8101  0.7092  0.4934  0.3671  0.3467  0.2674

 Free energy of the ion-electron system (eV)
  ---------------------------------------------------
  alpha Z        PSCENC =       978.75035419
  Ewald energy   TEWEN  =    562740.93739523
  -Hartree energ DENC   =   -646315.79251746
  -exchange      EXHF   =         0.00000000
  -V(xc)+E(xc)   XCENC  =      2888.65151415
  PAW double counting   =     84108.75834294   -90995.50267466
  entropy T*S    EENTRO =        -0.01944356
  eigenvalues    EBANDS =     -3241.63989330
  atomic energy  EATOM  =     89600.67939269
  ---------------------------------------------------
  free energy    TOTEN  =      -235.17752978 eV

  energy without entropy =     -235.15808622  energy(sigma->0) =     -235.17104859


--------------------------------------------------------------------------------------------------------




----------------------------------------- Iteration    1(  15)  ---------------------------------------


    POTLOK:  cpu time    0.13: real time    0.13
    SETDIJ:  cpu time    0.01: real time    0.01
     EDDAV:  cpu time   78.83: real time   78.89
       DOS:  cpu time    0.00: real time    0.00
    CHARGE:  cpu time    2.81: real time    2.81
    MIXING:  cpu time    0.01: real time    0.01
    --------------------------------------------
      LOOP:  cpu time   81.79: real time   82.14

 eigenvalue-minimisations  :  9940
 total energy-change (2. order) : 0.4700977E-03  (-0.1778842E-02)
 number of electron     714.0000819 magnetization 
 augmentation part      450.3854838 magnetization 

 Broyden mixing:
  rms(total) = 0.21484E-01    rms(broyden)= 0.21482E-01
  rms(prec ) = 0.23728E-01
  weight for this iteration     100.00

 eigenvalues of (default mixing * dielectric matrix)
  average eigenvalue GAMMA=   0.9345
  2.4518  1.8820  1.2131  0.8500  0.8500  0.7440  0.2675  0.3891  0.3485  0.3485

 Free energy of the ion-electron system (eV)
  ---------------------------------------------------
  alpha Z        PSCENC =       978.75035419
  Ewald energy   TEWEN  =    562740.93739523
  -Hartree energ DENC   =   -646329.46314717
  -exchange      EXHF   =         0.00000000
  -V(xc)+E(xc)   XCENC  =      2888.67421374
  PAW double counting   =     84116.61163928   -91003.78838710
  entropy T*S    EENTRO =        -0.01937333
  eigenvalues    EBANDS =     -3227.55914721
  atomic energy  EATOM  =     89600.67939269
  ---------------------------------------------------
  free energy    TOTEN  =      -235.17705968 eV

  energy without entropy =     -235.15768635  energy(sigma->0) =     -235.17060190


--------------------------------------------------------------------------------------------------------




----------------------------------------- Iteration    1(  16)  ---------------------------------------


    POTLOK:  cpu time    0.13: real time    0.13
    SETDIJ:  cpu time    0.01: real time    0.01
     EDDAV:  cpu time   79.33: real time   79.39
       DOS:  cpu time    0.00: real time    0.00
    CHARGE:  cpu time    2.82: real time    2.82
    MIXING:  cpu time    0.01: real time    0.01
    --------------------------------------------
      LOOP:  cpu time   82.30: real time   82.52

 eigenvalue-minimisations  : 10020
 total energy-change (2. order) : 0.6731536E-03  (-0.4616175E-03)
 number of electron     714.0000820 magnetization 
 augmentation part      450.4478557 magnetization 

 Broyden mixing:
  rms(total) = 0.83678E-02    rms(broyden)= 0.83661E-02
  rms(prec ) = 0.11031E-01
  weight for this iteration     100.00

 eigenvalues of (default mixing * dielectric matrix)
  average eigenvalue GAMMA=   0.9750
  2.4534  1.9163  1.9163  0.8131  0.8131  0.7646  0.6870  0.2669  0.3378  0.3915
  0.3657

 Free energy of the ion-electron system (eV)
  ---------------------------------------------------
  alpha Z        PSCENC =       978.75035419
  Ewald energy   TEWEN  =    562740.93739523
  -Hartree energ DENC   =   -646339.06087829
  -exchange      EXHF   =         0.00000000
  -V(xc)+E(xc)   XCENC  =      2888.52377010
  PAW double counting   =     84118.04556362   -91004.80637193
  entropy T*S    EENTRO =        -0.01938113
  eigenvalues    EBANDS =     -3218.22623101
  atomic energy  EATOM  =     89600.67939269
  ---------------------------------------------------
  free energy    TOTEN  =      -235.17638653 eV

  energy without entropy =     -235.15700540  energy(sigma->0) =     -235.16992615


--------------------------------------------------------------------------------------------------------




----------------------------------------- Iteration    1(  17)  ---------------------------------------


    POTLOK:  cpu time    0.13: real time    0.13
    SETDIJ:  cpu time    0.01: real time    0.01
     EDDAV:  cpu time   77.22: real time   77.28
       DOS:  cpu time    0.00: real time    0.00
    CHARGE:  cpu time    2.82: real time    2.83
    MIXING:  cpu time    0.01: real time    0.01
    --------------------------------------------
      LOOP:  cpu time   80.20: real time   80.40

 eigenvalue-minimisations  :  9700
 total energy-change (2. order) :-0.1079724E-02  (-0.4358200E-03)
 number of electron     714.0000820 magnetization 
 augmentation part      450.5346396 magnetization 

 Broyden mixing:
  rms(total) = 0.15431E-01    rms(broyden)= 0.15430E-01
  rms(prec ) = 0.16670E-01
  weight for this iteration     100.00

 eigenvalues of (default mixing * dielectric matrix)
  average eigenvalue GAMMA=   1.0065
  2.5496  2.5496  1.9933  0.9061  0.8088  0.8088  0.7220  0.2669  0.3853  0.3781
  0.3781  0.3320

 Free energy of the ion-electron system (eV)
  ---------------------------------------------------
  alpha Z        PSCENC =       978.75035419
  Ewald energy   TEWEN  =    562740.93739523
  -Hartree energ DENC   =   -646351.86340596
  -exchange      EXHF   =         0.00000000
  -V(xc)+E(xc)   XCENC  =      2888.41910864
  PAW double counting   =     84102.12326044   -90987.63197525
  entropy T*S    EENTRO =        -0.01952196
  eigenvalues    EBANDS =     -3206.57207428
  atomic energy  EATOM  =     89600.67939269
  ---------------------------------------------------
  free energy    TOTEN  =      -235.17746625 eV

  energy without entropy =     -235.15794430  energy(sigma->0) =     -235.17095893


--------------------------------------------------------------------------------------------------------




----------------------------------------- Iteration    1(  18)  ---------------------------------------


    POTLOK:  cpu time    0.13: real time    0.13
    SETDIJ:  cpu time    0.01: real time    0.01
     EDDAV:  cpu time   82.17: real time   82.23
       DOS:  cpu time    0.00: real time    0.00
    CHARGE:  cpu time    2.82: real time    2.82
    MIXING:  cpu time    0.01: real time    0.01
    --------------------------------------------
      LOOP:  cpu time   85.14: real time   85.35

 eigenvalue-minimisations  : 10480
 total energy-change (2. order) :-0.3538693E-03  (-0.1516935E-03)
 number of electron     714.0000820 magnetization 
 augmentation part      450.5156845 magnetization 

 Broyden mixing:
  rms(total) = 0.96056E-02    rms(broyden)= 0.96051E-02
  rms(prec ) = 0.10500E-01
  weight for this iteration     100.00

 eigenvalues of (default mixing * dielectric matrix)
  average eigenvalue GAMMA=   1.0879
  3.2377  2.6854  1.6532  1.6532  0.8174  0.8174  0.7796  0.7796  0.2669  0.3941
  0.3333  0.3625  0.3625

 Free energy of the ion-electron system (eV)
  ---------------------------------------------------
  alpha Z        PSCENC =       978.75035419
  Ewald energy   TEWEN  =    562740.93739523
  -Hartree energ DENC   =   -646362.69556624
  -exchange      EXHF   =         0.00000000
  -V(xc)+E(xc)   XCENC  =      2888.49916583
  PAW double counting   =     84095.10092659   -90980.67747611
  entropy T*S    EENTRO =        -0.01918930
  eigenvalues    EBANDS =     -3195.75282299
  atomic energy  EATOM  =     89600.67939269
  ---------------------------------------------------
  free energy    TOTEN  =      -235.17782012 eV

  energy without entropy =     -235.15863082  energy(sigma->0) =     -235.17142369


--------------------------------------------------------------------------------------------------------




----------------------------------------- Iteration    1(  19)  ---------------------------------------


    POTLOK:  cpu time    0.13: real time    0.13
    SETDIJ:  cpu time    0.01: real time    0.01
     EDDAV:  cpu time   83.07: real time   83.23
       DOS:  cpu time    0.00: real time    0.00
    CHARGE:  cpu time    2.81: real time    2.82
    MIXING:  cpu time    0.01: real time    0.01
    --------------------------------------------
      LOOP:  cpu time   86.04: real time   86.36

 eigenvalue-minimisations  : 10640
 total energy-change (2. order) :-0.1159870E-02  (-0.2967923E-03)
 number of electron     714.0000820 magnetization 
 augmentation part      450.4110918 magnetization 

 Broyden mixing:
  rms(total) = 0.10896E-01    rms(broyden)= 0.10894E-01
  rms(prec ) = 0.11470E-01
  weight for this iteration     100.00

 eigenvalues of (default mixing * dielectric matrix)
  average eigenvalue GAMMA=   1.1038
  3.1648  2.9057  1.9158  1.9158  0.8173  0.8173  0.7970  0.7567  0.6304  0.2669
  0.3963  0.3375  0.3552  0.3763

 Free energy of the ion-electron system (eV)
  ---------------------------------------------------
  alpha Z        PSCENC =       978.75035419
  Ewald energy   TEWEN  =    562740.93739523
  -Hartree energ DENC   =   -646376.23916368
  -exchange      EXHF   =         0.00000000
  -V(xc)+E(xc)   XCENC  =      2888.69918901
  PAW double counting   =     84091.96079670   -90978.38091577
  entropy T*S    EENTRO =        -0.01833867
  eigenvalues    EBANDS =     -3181.56768969
  atomic energy  EATOM  =     89600.67939269
  ---------------------------------------------------
  free energy    TOTEN  =      -235.17897999 eV

  energy without entropy =     -235.16064132  energy(sigma->0) =     -235.17286710


--------------------------------------------------------------------------------------------------------




----------------------------------------- Iteration    1(  20)  ---------------------------------------


    POTLOK:  cpu time    0.13: real time    0.13
    SETDIJ:  cpu time    0.01: real time    0.01
     EDDAV:  cpu time   76.37: real time   76.45
       DOS:  cpu time    0.00: real time    0.00
    CHARGE:  cpu time    2.82: real time    2.83
    MIXING:  cpu time    0.01: real time    0.01
    --------------------------------------------
      LOOP:  cpu time   79.35: real time   79.70

 eigenvalue-minimisations  :  9560
 total energy-change (2. order) :-0.8437146E-03  (-0.6582479E-04)
 number of electron     714.0000820 magnetization 
 augmentation part      450.4414527 magnetization 

 Broyden mixing:
  rms(total) = 0.48759E-02    rms(broyden)= 0.48756E-02
  rms(prec ) = 0.52401E-02
  weight for this iteration     100.00

 eigenvalues of (default mixing * dielectric matrix)
  average eigenvalue GAMMA=   1.1273
  3.8388  2.9084  1.9928  1.9928  0.9557  0.8278  0.8278  0.7398  0.7398  0.2669
  0.3930  0.3797  0.3366  0.3547  0.3547

 Free energy of the ion-electron system (eV)
  ---------------------------------------------------
  alpha Z        PSCENC =       978.75035419
  Ewald energy   TEWEN  =    562740.93739523
  -Hartree energ DENC   =   -646377.92138566
  -exchange      EXHF   =         0.00000000
  -V(xc)+E(xc)   XCENC  =      2888.63239636
  PAW double counting   =     84090.97279411   -90977.03256364
  entropy T*S    EENTRO =        -0.01856521
  eigenvalues    EBANDS =     -3180.17964177
  atomic energy  EATOM  =     89600.67939269
  ---------------------------------------------------
  free energy    TOTEN  =      -235.17982371 eV

  energy without entropy =     -235.16125849  energy(sigma->0) =     -235.17363530


--------------------------------------------------------------------------------------------------------




----------------------------------------- Iteration    1(  21)  ---------------------------------------


    POTLOK:  cpu time    0.13: real time    0.13
    SETDIJ:  cpu time    0.01: real time    0.01
     EDDAV:  cpu time   78.14: real time   78.20
       DOS:  cpu time    0.00: real time    0.00
    CHARGE:  cpu time    2.82: real time    2.82
    MIXING:  cpu time    0.01: real time    0.01
    --------------------------------------------
      LOOP:  cpu time   81.12: real time   81.34

 eigenvalue-minimisations  :  9860
 total energy-change (2. order) :-0.6739376E-03  (-0.2650099E-04)
 number of electron     714.0000820 magnetization 
 augmentation part      450.4615933 magnetization 

 Broyden mixing:
  rms(total) = 0.14155E-02    rms(broyden)= 0.14150E-02
  rms(prec ) = 0.18264E-02
  weight for this iteration     100.00

 eigenvalues of (default mixing * dielectric matrix)
  average eigenvalue GAMMA=   1.1890
  4.6673  2.9065  2.3243  1.4607  1.4607  0.9863  0.8256  0.8256  0.7430  0.7430
  0.2669  0.3955  0.3727  0.3627  0.3364  0.3477

 Free energy of the ion-electron system (eV)
  ---------------------------------------------------
  alpha Z        PSCENC =       978.75035419
  Ewald energy   TEWEN  =    562740.93739523
  -Hartree energ DENC   =   -646380.07146448
  -exchange      EXHF   =         0.00000000
  -V(xc)+E(xc)   XCENC  =      2888.60105515
  PAW double counting   =     84090.60178912   -90976.51719945
  entropy T*S    EENTRO =        -0.01868573
  eigenvalues    EBANDS =     -3178.14313436
  atomic energy  EATOM  =     89600.67939269
  ---------------------------------------------------
  free energy    TOTEN  =      -235.18049764 eV

  energy without entropy =     -235.16181191  energy(sigma->0) =     -235.17426906


[...]
  0.000   0.000   0.011   0.000   0.000   0.000   0.000   0.001   0.000   0.000  -0.128   0.015   0.000  -0.025   0.000   0.000
  0.000   0.031   0.000   0.001   0.001   0.000   0.022   0.000   0.000   0.000  -0.001   0.000   0.183   0.002   0.001  -0.011
  0.002   0.001   0.041   0.001   0.000   0.000   0.000   0.018   0.000   0.000   0.164  -0.025   0.002   0.114   0.002   0.000
  0.000   0.001   0.000   0.031  -0.001   0.000   0.000   0.000   0.022   0.000  -0.001   0.000   0.001   0.002   0.183   0.000
  0.001  -0.016   0.000   0.000  -0.001   0.000  -0.001   0.000   0.000   0.000   0.000   0.000  -0.011   0.000   0.000   0.001
  0.000   0.001  -0.019   0.001   0.000   0.000   0.000  -0.001   0.000   0.000  -0.023   0.003   0.000  -0.008   0.000   0.000
  0.001   0.000   0.000  -0.016   0.001   0.000   0.000   0.000  -0.001   0.000   0.000   0.000   0.000   0.000  -0.011   0.000


------------------------ aborting loop because EDIFF is reached ----------------------------------------


    CHARGE:  cpu time    2.83: real time    2.83
    FORLOC:  cpu time    0.05: real time    0.05
    FORNL :  cpu time    9.59: real time    9.59
    STRESS:  cpu time   28.94: real time   29.00
    FORCOR:  cpu time    0.17: real time    0.17
    FORHAR:  cpu time    0.08: real time    0.08
    MIXING:  cpu time    0.01: real time    0.01
    OFIELD:  cpu time    0.00: real time    0.00

  FORCE on cell =-STRESS in cart. coord.  units (eV):
  Direction    XX          YY          ZZ          XY          YZ          ZX
  --------------------------------------------------------------------------------------
  Alpha Z   978.75035   978.75035   978.75035
  Ewald  608512.77645608512.77645************     0.00378     1.43332     1.43332
  Hartree630739.44620630739.44619************     0.00144     0.58800     0.58802
  E(xc)   -4152.98792 -4152.98792 -4159.01432     0.00001     0.00421     0.00421
  Local  ************************************    -0.00484    -1.91343    -1.91346
  n-local -1437.42660 -1437.42661 -1457.42138    -0.00194    -0.02015    -0.02010
  augment  6051.05956  6051.05956  6071.55842     0.00017    -0.01194    -0.01199
  Kinetic  5924.27828  5924.27828  5932.95215    -0.00036    -0.08177    -0.08176
  Fock        0.00000     0.00000     0.00000     0.00000     0.00000     0.00000
  -------------------------------------------------------------------------------------
  Total     -21.52086   -21.52086    -7.69975    -0.00173    -0.00176    -0.00177
  in kB     -10.99530   -10.99531    -3.93391    -0.00089    -0.00090    -0.00090
  external pressure =       -8.64 kB  Pullay stress =        0.00 kB


 VOLUME and BASIS-vectors are now :
 -----------------------------------------------------------------------------
  energy-cutoff  :      400.00
  volume of cell :     3135.91
      direct lattice vectors                 reciprocal lattice vectors
    10.224000000  0.000000000  0.000000000     0.097809077  0.000000000  0.000000000
     0.000000000 10.224000000  0.000000000     0.000000000  0.097809077  0.000000000
     0.000000000  0.000000000 30.000000000     0.000000000  0.000000000  0.033333333

  length of vectors
    10.224000000 10.224000000 30.000000000     0.097809077  0.097809077  0.033333333


 FORCES acting on ions
    electron-ion (+dipol)            ewald-force                    non-local-force                 convergence-correction
 -----------------------------------------------------------------------------------------------
   0.196E+00 0.196E+00 0.379E+04   -.340E+00 -.340E+00 -.379E+04   0.120E+00 0.120E+00 -.360E+01   -.373E-04 -.183E-04 0.434E-03
   0.184E+00 0.455E+00 0.379E+04   -.152E+00 -.447E+00 -.379E+04   -.211E-01 -.768E-03 -.370E+01   -.174E-04 -.856E-04 0.367E-03
   0.187E+00 -.440E+00 0.379E+04   -.155E+00 0.433E+00 -.379E+04   -.210E-01 -.328E-04 -.370E+01   -.920E-05 0.529E-04 0.353E-03
   0.198E+00 -.208E+00 0.379E+04   -.341E+00 0.351E+00 -.379E+04   0.119E+00 -.119E+00 -.361E+01   -.255E-04 0.512E-04 0.421E-03
   0.455E+00 0.184E+00 0.379E+04   -.447E+00 -.152E+00 -.379E+04   -.772E-03 -.211E-01 -.370E+01   -.663E-04 -.138E-04 0.379E-03
   0.356E+00 0.356E+00 0.379E+04   -.446E+00 -.446E+00 -.379E+04   0.862E-01 0.862E-01 -.335E+01   -.911E-04 -.964E-04 0.359E-03
   0.358E+00 -.338E+00 0.379E+04   -.448E+00 0.427E+00 -.379E+04   0.865E-01 -.862E-01 -.335E+01   -.881E-04 0.776E-04 0.338E-03
   0.456E+00 -.200E+00 0.379E+04   -.449E+00 0.167E+00 -.379E+04   -.737E-03 0.211E-01 -.370E+01   -.600E-04 0.329E-04 0.358E-03
   -.440E+00 0.187E+00 0.379E+04   0.433E+00 -.155E+00 -.379E+04   -.314E-04 -.210E-01 -.370E+01   0.734E-04 -.174E-04 0.385E-03
   -.338E+00 0.358E+00 0.379E+04   0.427E+00 -.448E+00 -.379E+04   -.862E-01 0.865E-01 -.335E+01   0.880E-04 -.106E-03 0.360E-03
   -.340E+00 -.340E+00 0.379E+04   0.429E+00 0.429E+00 -.379E+04   -.865E-01 -.865E-01 -.335E+01   0.800E-04 0.818E-04 0.337E-03
   -.441E+00 -.203E+00 0.379E+04   0.435E+00 0.170E+00 -.379E+04   -.636E-04 0.210E-01 -.370E+01   0.630E-04 0.422E-04 0.361E-03
   -.208E+00 0.198E+00 0.379E+04   0.351E+00 -.341E+00 -.379E+04   -.119E+00 0.119E+00 -.361E+01   0.298E-04 -.207E-04 0.437E-03
   -.200E+00 0.456E+00 0.379E+04   0.167E+00 -.449E+00 -.379E+04   0.211E-01 -.733E-03 -.370E+01   0.216E-04 -.926E-04 0.366E-03
   -.203E+00 -.441E+00 0.379E+04   0.170E+00 0.435E+00 -.379E+04   0.210E-01 -.652E-04 -.370E+01   0.170E-04 0.563E-04 0.350E-03
   -.210E+00 -.210E+00 0.379E+04   0.352E+00 0.352E+00 -.379E+04   -.118E+00 -.118E+00 -.361E+01   0.218E-04 0.570E-04 0.422E-03
   0.779E-01 0.779E-01 0.133E+04   -.364E-01 -.364E-01 -.133E+04   -.101E-01 -.101E-01 -.541E+00   -.158E-04 -.292E-04 0.494E-03
   0.255E+00 0.407E-01 0.133E+04   -.129E+00 -.402E-01 -.133E+04   -.103E+00 -.456E-03 -.683E+00   -.237E-04 -.232E-04 0.456E-03
   0.105E+00 -.100E+00 0.133E+04   -.632E-01 0.578E-01 -.133E+04   -.104E-01 0.111E-01 -.542E+00   -.118E-04 0.157E-04 0.477E-03
   0.203E+01 -.259E-01 0.133E+04   -.212E+01 0.266E-01 -.133E+04   0.102E+00 -.468E-03 -.514E+00   -.410E-04 0.351E-04 0.353E-03
   0.407E-01 0.255E+00 0.133E+04   -.402E-01 -.129E+00 -.133E+04   -.461E-03 -.103E+00 -.683E+00   0.101E-04 -.483E-04 0.483E-03
   0.484E-01 0.485E-01 0.134E+04   -.482E-01 -.482E-01 -.134E+04   -.152E-03 -.148E-03 -.301E+00   -.484E-05 -.266E-04 0.469E-03
   0.407E-01 -.287E+00 0.133E+04   -.403E-01 0.161E+00 -.133E+04   -.447E-03 0.104E+00 -.683E+00   0.244E-06 0.367E-04 0.448E-03
   0.195E-01 -.277E-01 0.133E+04   -.188E-01 0.283E-01 -.133E+04   -.641E-03 -.391E-03 -.599E+00   0.123E-04 0.381E-04 0.411E-03
   -.100E+00 0.105E+00 0.133E+04   0.578E-01 -.632E-01 -.133E+04   0.111E-01 -.104E-01 -.542E+00   0.960E-05 -.434E-04 0.502E-03
   -.287E+00 0.408E-01 0.133E+04   0.161E+00 -.403E-01 -.133E+04   0.104E+00 -.444E-03 -.683E+00   0.226E-04 -.291E-04 0.463E-03
   -.127E+00 -.127E+00 0.133E+04   0.846E-01 0.846E-01 -.133E+04   0.115E-01 0.115E-01 -.543E+00   0.119E-04 0.315E-04 0.485E-03
   -.202E+01 -.259E-01 0.133E+04   0.211E+01 0.266E-01 -.133E+04   -.101E+00 -.473E-03 -.514E+00   0.351E-04 0.412E-04 0.360E-03
   -.259E-01 0.203E+01 0.133E+04   0.266E-01 -.212E+01 -.133E+04   -.464E-03 0.102E+00 -.514E+00   -.386E-05 -.650E-04 0.351E-03
   -.277E-01 0.196E-01 0.133E+04   0.283E-01 -.188E-01 -.133E+04   -.387E-03 -.637E-03 -.599E+00   0.477E-05 -.280E-04 0.397E-03
   -.296E-01 -.296E-01 0.132E+04   0.298E-01 0.298E-01 -.132E+04   0.133E-03 0.129E-03 -.771E+00   -.709E-05 0.399E-04 0.280E-03
   -.259E-01 -.202E+01 0.133E+04   0.266E-01 0.211E+01 -.133E+04   -.469E-03 -.101E+00 -.514E+00   0.627E-06 0.528E-04 0.345E-03
   0.496E+01 0.496E+01 -.122E+04   -.492E+01 -.492E+01 0.122E+04   -.363E-01 -.363E-01 0.295E+00   0.337E-04 0.466E-04 0.208E-04
   0.695E+01 0.646E+01 -.120E+04   -.693E+01 -.655E+01 0.120E+04   -.292E-01 0.972E-01 0.460E+00   0.126E-04 -.132E-03 0.439E-04
   0.698E+01 -.639E+01 -.120E+04   -.696E+01 0.649E+01 0.120E+04   -.289E-01 -.973E-01 0.460E+00   0.141E-04 0.885E-04 0.492E-04
   0.497E+01 -.502E+01 -.122E+04   -.492E+01 0.498E+01 0.122E+04   -.360E-01 0.364E-01 0.296E+00   0.330E-04 -.284E-05 0.282E-04
   0.646E+01 0.695E+01 -.120E+04   -.655E+01 -.693E+01 0.120E+04   0.971E-01 -.292E-01 0.460E+00   -.866E-04 0.232E-04 0.425E-04
   0.944E+01 0.944E+01 -.120E+04   -.921E+01 -.921E+01 0.120E+04   -.248E+00 -.248E+00 -.197E+00   0.403E-04 -.162E-05 0.555E-04
   0.942E+01 -.931E+01 -.120E+04   -.919E+01 0.908E+01 0.120E+04   -.248E+00 0.248E+00 -.196E+00   0.279E-04 -.491E-04 0.598E-04
   0.648E+01 -.706E+01 -.120E+04   -.657E+01 0.704E+01 0.120E+04   0.971E-01 0.291E-01 0.461E+00   -.977E-04 0.281E-04 0.480E-04
   -.639E+01 0.698E+01 -.120E+04   0.649E+01 -.696E+01 0.120E+04   -.973E-01 -.289E-01 0.460E+00   0.102E-03 0.228E-04 0.409E-04
   -.931E+01 0.942E+01 -.120E+04   0.908E+01 -.919E+01 0.120E+04   0.248E+00 -.248E+00 -.196E+00   -.337E-04 -.130E-04 0.624E-04
   -.930E+01 -.930E+01 -.120E+04   0.906E+01 0.906E+01 0.120E+04   0.247E+00 0.247E+00 -.195E+00   -.286E-04 -.460E-04 0.670E-04
   -.641E+01 -.709E+01 -.120E+04   0.651E+01 0.707E+01 0.120E+04   -.976E-01 0.297E-01 0.461E+00   0.109E-03 0.361E-04 0.477E-04
   -.502E+01 0.497E+01 -.122E+04   0.498E+01 -.492E+01 0.122E+04   0.364E-01 -.360E-01 0.296E+00   -.494E-04 0.450E-04 0.201E-04
   -.706E+01 0.648E+01 -.120E+04   0.704E+01 -.657E+01 0.120E+04   0.291E-01 0.971E-01 0.461E+00   -.180E-04 -.139E-03 0.489E-04
   -.709E+01 -.641E+01 -.120E+04   0.707E+01 0.651E+01 0.120E+04   0.297E-01 -.976E-01 0.461E+00   -.148E-04 0.929E-04 0.559E-04
   -.503E+01 -.503E+01 -.122E+04   0.499E+01 0.499E+01 0.122E+04   0.365E-01 0.364E-01 0.296E+00   -.446E-04 0.200E-05 0.283E-04
   0.318E+02 0.318E+02 -.367E+04   -.318E+02 -.318E+02 0.367E+04   0.188E-01 0.188E-01 0.358E+01   -.192E-03 -.210E-03 -.483E-03
   0.565E+02 0.136E+00 -.364E+04   -.570E+02 -.138E+00 0.364E+04   0.518E+00 0.163E-02 0.414E+01   -.245E-04 -.184E-04 -.387E-03
   0.319E+02 -.318E+02 -.367E+04   -.320E+02 0.319E+02 0.367E+04   0.184E-01 -.199E-01 0.358E+01   -.198E-03 0.204E-03 -.457E-03
   0.182E+02 -.991E-01 -.370E+04   -.182E+02 0.998E-01 0.370E+04   0.120E-01 -.489E-03 0.369E+01   -.487E-05 0.249E-04 -.414E-03
   0.136E+00 0.565E+02 -.364E+04   -.138E+00 -.570E+02 0.364E+04   0.163E-02 0.518E+00 0.414E+01   0.112E-04 -.393E-04 -.404E-03
   0.659E+00 0.659E+00 -.354E+04   -.670E+00 -.670E+00 0.353E+04   0.102E-01 0.102E-01 0.159E+01   0.551E-05 -.276E-04 -.409E-03
   0.138E+00 -.567E+02 -.364E+04   -.139E+00 0.572E+02 0.364E+04   0.193E-02 -.532E+00 0.414E+01   0.620E-05 0.371E-04 -.370E-03
   0.604E-01 -.170E+00 -.369E+04   -.592E-01 0.172E+00 0.368E+04   -.108E-02 -.202E-02 0.329E+01   0.962E-05 0.333E-04 -.323E-03
   -.318E+02 0.319E+02 -.367E+04   0.319E+02 -.320E+02 0.367E+04   -.199E-01 0.184E-01 0.358E+01   0.187E-03 -.211E-03 -.489E-03
   -.567E+02 0.138E+00 -.364E+04   0.572E+02 -.139E+00 0.364E+04   -.532E+00 0.193E-02 0.414E+01   0.226E-04 -.232E-04 -.382E-03
   -.320E+02 -.320E+02 -.367E+04   0.320E+02 0.320E+02 0.367E+04   -.195E-01 -.195E-01 0.358E+01   0.196E-03 0.207E-03 -.459E-03
   -.182E+02 -.996E-01 -.370E+04   0.182E+02 0.100E+00 0.370E+04   -.115E-01 -.546E-03 0.369E+01   0.114E-05 0.281E-04 -.423E-03
   -.991E-01 0.182E+02 -.370E+04   0.998E-01 -.182E+02 0.370E+04   -.487E-03 0.120E-01 0.369E+01   -.703E-05 -.184E-04 -.421E-03
   -.170E+00 0.604E-01 -.369E+04   0.172E+00 -.592E-01 0.368E+04   -.202E-02 -.108E-02 0.329E+01   -.403E-05 -.227E-04 -.308E-03
   -.529E-01 -.529E-01 -.371E+04   0.526E-01 0.526E-01 0.371E+04   0.213E-03 0.210E-03 0.382E+01   -.567E-05 0.261E-04 -.363E-03
   -.995E-01 -.182E+02 -.370E+04   0.100E+00 0.182E+02 0.370E+04   -.543E-03 -.115E-01 0.369E+01   -.415E-05 0.146E-04 -.399E-03
   0.419E+00 0.419E+00 -.148E+04   -.483E+00 -.483E+00 0.146E+04   0.620E-01 0.620E-01 0.195E+02   0.135E-05 -.376E-05 0.393E-04
   -.617E+00 -.617E+00 -.244E+04   0.792E+00 0.792E+00 0.250E+04   -.170E+00 -.170E+00 -.602E+02   0.265E-05 -.189E-05 0.258E-03
 -----------------------------------------------------------------------------------------------
   0.117E+00 0.117E+00 0.457E+02   0.344E-13 0.152E-12 -.500E-11   -.114E+00 -.114E+00 -.456E+02   0.220E-05 -.151E-05 0.733E-02
 
 
 POSITION                                       TOTAL-FORCE (eV/Angst)
 -----------------------------------------------------------------------------------
      0.00000      0.00000      0.00000        -0.024181     -0.024181      0.091022
      0.00000      2.55600      0.00000         0.011349      0.006636      0.091831
      0.00000      5.11200      0.00000         0.011375     -0.006724      0.091892
      0.00000      7.66800      0.00000        -0.024162      0.024021      0.090960
      2.55600      0.00000      0.00000         0.006637      0.011349      0.091832
      2.55600      2.55600      0.00000        -0.003511     -0.003512      0.097311
      2.55600      5.11200      0.00000        -0.003534      0.003454      0.097848
      2.55600      7.66800      0.00000         0.006625     -0.011546      0.091270
      5.11200      0.00000      0.00000        -0.006723      0.011375      0.091894
      5.11200      2.55600      0.00000         0.003454     -0.003535      0.097849
      5.11200      5.11200      0.00000         0.003477      0.003478      0.097879
      5.11200      7.66800      0.00000        -0.006711     -0.011573      0.091842
      7.66800      0.00000      0.00000         0.024021     -0.024162      0.090960
      7.66800      2.55600      0.00000        -0.011546      0.006624      0.091270
      7.66800      5.11200      0.00000        -0.011574     -0.006711      0.091841
      7.66800      7.66800      0.00000         0.024001      0.024002      0.090391
      1.27799      1.27799      1.80735         0.031322      0.031321     -0.072192
      1.27799      3.83399      1.80735         0.022899     -0.000042     -0.096343
      1.27799      6.38999      1.80735         0.031122     -0.031480     -0.072558
      1.27799      8.94599      1.80735         0.012073      0.000152     -0.090244
      3.83399      1.27799      1.80735        -0.000041      0.022898     -0.096341
      3.83399      3.83399      1.80735         0.000044      0.000044     -0.095127
      3.83399      6.38999      1.80735        -0.000033     -0.023067     -0.096563
      3.83399      8.94599      1.80735         0.000051      0.000146     -0.086223
      6.38999      1.27799      1.80735        -0.031481      0.031121     -0.072557
      6.38999      3.83399      1.80735        -0.023068     -0.000034     -0.096563
      6.38999      6.38999      1.80735        -0.031298     -0.031297     -0.072906
      6.38999      8.94599      1.80735        -0.012565      0.000152     -0.090244
      8.94599      1.27799      1.80735         0.000150      0.012072     -0.090245
      8.94599      3.83399      1.80735         0.000144      0.000050     -0.086223
      8.94599      8.94599      1.80735         0.000341      0.000342     -0.114698
      8.94599      6.38999      1.80735         0.000151     -0.012564     -0.090245
     10.22238     10.22238      3.65135         0.005279      0.005279     -0.002767
      0.00296      2.55471      3.64826        -0.005500      0.004205     -0.007762
      0.00296      5.11326      3.64826        -0.005099     -0.004133     -0.007527
     10.22236      7.66963      3.65131         0.005408     -0.005727     -0.002354
      2.55471      0.00296      3.64826         0.004207     -0.005500     -0.007763
      2.57004      2.57004      3.66802        -0.012710     -0.012712      0.018559
      2.56997      5.09805      3.66785        -0.012907      0.013091      0.019188
      2.55472      7.66504      3.64828         0.004170      0.005051     -0.008809
      5.11326      0.00296      3.64826        -0.004133     -0.005099     -0.007528
      5.09805      2.56997      3.66785         0.013092     -0.012909      0.019187
      5.09811      5.09811      3.66768         0.012870      0.012869      0.018790
      5.11326      7.66504      3.64828        -0.004391      0.005459     -0.007794
      7.66963     10.22236      3.65131        -0.005729      0.005408     -0.002354
      7.66504      2.55472      3.64828         0.005050      0.004169     -0.008810
      7.66504      5.11326      3.64828         0.005458     -0.004392     -0.007793
      7.66965      7.66965      3.65127        -0.005450     -0.005449     -0.003347
      1.27762      1.27762      5.42555        -0.004037     -0.004037     -0.010311
      1.25016      3.83399      5.43735        -0.006453      0.000012     -0.010862
      1.27756      6.39043      5.42548        -0.004173      0.003706     -0.010341
      1.28283      8.94601      5.42996        -0.003575      0.000168     -0.007357
      3.83399      1.25016      5.43735         0.000013     -0.006454     -0.010863
      3.83389      3.83389      5.56194        -0.000572     -0.000573      0.023192
      3.83399      6.41787      5.43736         0.000213      0.006228     -0.011011
      3.83399      8.94599      5.43033         0.000086      0.000174     -0.004327
      6.39043      1.27756      5.42548         0.003706     -0.004173     -0.010342
      6.41787      3.83399      5.43736         0.006228      0.000212     -0.011011
      6.39049      6.39049      5.42542         0.003875      0.003875     -0.010394
      6.38515      8.94601      5.42993         0.003316      0.000132     -0.007260
      8.94601      1.28283      5.42996         0.000168     -0.003575     -0.007357
      8.94599      3.83399      5.43033         0.000174      0.000085     -0.004326
      8.94599      8.94599      5.43558        -0.000120     -0.000120     -0.004969
      8.94601      6.38515      5.42993         0.000132      0.003317     -0.007259
      3.83911      3.83911      7.40921        -0.001528     -0.001527     -0.005930
      3.84243      3.84243      8.56632         0.004129      0.004129      0.040990
 -----------------------------------------------------------------------------------
    total drift:                                0.003130      0.003130      0.027586


--------------------------------------------------------------------------------------------------------



  FREE ENERGIE OF THE ION-ELECTRON SYSTEM (eV)
  ---------------------------------------------------
  free  energy   TOTEN  =      -235.18243822 eV

  energy  without entropy=     -235.16381001  energy(sigma->0) =     -235.17622882
 


--------------------------------------------------------------------------------------------------------


    POTLOK:  cpu time    0.15: real time    0.15


--------------------------------------------------------------------------------------------------------


 writing wavefunctions
     LOOP+:  cpu time 2503.12: real time 2543.95
    4ORBIT:  cpu time    0.00: real time    0.00

 total amount of memory used by VASP on root node   288201. kBytes
========================================================================

   base      :      30000. kBytes
   nonlr-proj:      20787. kBytes
   fftplans  :       6625. kBytes
   grid      :      24688. kBytes
   one-center:       1026. kBytes
   wavefun   :     205075. kBytes
 
  
  
 General timing and accounting informations for this job:
 ========================================================
  
                  Total CPU time used (sec):     2528.375
                            User time (sec):     2470.923
                          System time (sec):       57.451
                         Elapsed time (sec):     2570.754
  
                   Maximum memory used (kb):      355068.
                   Average memory used (kb):           0.
  
                          Minor page faults:      1374493
                          Major page faults:            0
                 Voluntary context switches:          686
